Siesta Version  : 4.1.5
Architecture    : unknown
Compiler version: GNU Fortran (crosstool-NG 1.24.0.133_b0863d8_dirty) 9.3.0
Compiler flags  : mpifort -march=nocona -mtune=haswell -ftree-vectorize -fPIC -fstack-protectorr-strong -fno-plt -O2 -ffunction-sections -pipe
PP flags        : -DFC_HAVE_ABORT -DCDF -DMPI -DSIESTA__MRRR -DNCDF -DNCDF_4
Libraries       : libncdf.a libfdict.a -lscalapack -llapack -lblas -lnetcdff -lnetcdf -lhdf5_hll -lhdf5 -lz
PARALLEL version
NetCDF support
NetCDF-4 support

* Running in serial mode with MPI
>> Start of run:   2-NOV-2022  23:42:15

                           ***********************       
                           *  WELCOME TO SIESTA  *       
                           ***********************       

reinit: Reading from standard input
reinit: Dumped input in INPUT_TMP.80955
************************** Dump of input data file ****************************
#####################################
#       Parallel options            #
#    BlockSize   32                 #
#    ProcessorY  16                 #
#   DiagMemory  1                   #
#   TryMemoryIncrease  true         #
#   DiagScale   1                   #
#   ParallelOverK      false        #
#######################################
#####################################
#       General Options             #
  UseSaveData	     False	        #	
  WriteCoorInital    false          #
  WriteCoorStep      false          #
  WriteForces	     false          #
  WriteKpoints	     false          #
  WriteEigenvalues   false          #
  WriteKbands	     false          #
  WriteBands	     false          #
  WriteMullikenPop   0              #
  WriteDM	     true               #
  WriteCoorXmol	    false           #
  WriteCoorCerius    false          #
  WriteMDXmol	     false          #
  WriteMDhistory     false          #
  WriteDenchar       true           #
  SaveRHO            true           #
#  WriteDenchar       true          #
#  COOP.Write         true          #
#  SaveElectrostaticPotential true  #
#####################################
SystemLabel      CH3CH2O
SystemName       CH3CH2O
NumberOfAtoms    8
NumberOfSpecies  3
%block ChemicalSpeciesLabel
1  6  C-gga
2  8  O-gga
3  1  H-gga
%endblock ChemicalSpeciesLabel
#---------------------------------------------------------------------------------------------
#    DFT   Calcule Control
#---------------------------------------------------------------------------------------------
PAO.BasisSize     DZP
PAO.EnergyShift   100.0 meV
XC.functional     GGA
XC.authors        PBE
MaxSCFIterations  150
MeshCutoff        200  Ry
DM.MixingWeight   0.1
DM.Tolerance      1.000E-4
DM.NumberPulay    5
SolutionMethod    diagon
ElectronicTemperature  25.86  meV
Spin    non-polarized
#----------------------------------------------------------------------------------------------
#     System  Relax Control
#----------------------------------------------------------------------------------------------
MD.TypeOfRun FIRE
MD.NumCGsteps  200
MD.VariableCell  .True.
MD.MaxForceTol    0.04 eV/Ang
#-----------------------------------------------------------------------------------------------
# Geometric  structure
#-----------------------------------------------------------------------------------------------
AtomicCoordinatesFormat Ang
AtomCoorFormatOut  Ang
AtomicCoordinatesFormat NotScaledCartesianAng
%block AtomicCoordinatesAndAtomicSpecies
    1.004760000000    -0.568260000000    0.000000000000    1
    0.000000000000    0.588690000000    0.000000000000    1
    -1.260060000000    0.000730000000    0.000000000000    2
    0.146960000000    1.204680000000    0.896530000000    3
    0.146960000000    1.204680000000    -0.896530000000    3
    2.019360000000    -0.164100000000    0.000000000000    3
    0.869340000000    -1.186830000000    0.888070000000    3
    0.869340000000    -1.186830000000    -0.888070000000    3
%endblock AtomicCoordinatesAndAtomicSpecies
************************** End of input data file *****************************

reinit: -----------------------------------------------------------------------
reinit: System Name: CH3CH2O
reinit: -----------------------------------------------------------------------
reinit: System Label: CH3CH2O
reinit: -----------------------------------------------------------------------

initatom: Reading input for the pseudopotentials and atomic orbitals ----------
Species number:   1 Atomic number:    6 Label: C-gga
Species number:   2 Atomic number:    8 Label: O-gga
Species number:   3 Atomic number:    1 Label: H-gga

Ground state valence configuration:   2s02  2p02
Reading pseudopotential information in formatted form from C-gga.psf

Valence configuration for pseudopotential generation:
2s( 2.00) rc: 1.56
2p( 2.00) rc: 1.56
3d( 0.00) rc: 1.56
4f( 0.00) rc: 1.56
Ground state valence configuration:   2s02  2p04
Reading pseudopotential information in formatted form from O-gga.psf

Valence configuration for pseudopotential generation:
2s( 2.00) rc: 1.47
2p( 4.00) rc: 1.47
3d( 0.00) rc: 1.47
4f( 0.00) rc: 1.47
Ground state valence configuration:   1s01
Reading pseudopotential information in formatted form from H-gga.psf

Valence configuration for pseudopotential generation:
1s( 1.00) rc: 1.33
2p( 0.00) rc: 1.33
3d( 0.00) rc: 0.37
4f( 0.00) rc: 1.33
For C-gga, standard SIESTA heuristics set lmxkb to 3
 (one more than the basis l, including polarization orbitals).
Use PS.lmax or PS.KBprojectors blocks to override.
For O-gga, standard SIESTA heuristics set lmxkb to 3
 (one more than the basis l, including polarization orbitals).
Use PS.lmax or PS.KBprojectors blocks to override.
For H-gga, standard SIESTA heuristics set lmxkb to 2
 (one more than the basis l, including polarization orbitals).
Use PS.lmax or PS.KBprojectors blocks to override.

<basis_specs>
===============================================================================
C-gga                Z=   6    Mass=  12.010        Charge= 0.17977+309
Lmxo=1 Lmxkb= 3    BasisType=split      Semic=F
L=0  Nsemic=0  Cnfigmx=2
          i=1  nzeta=2  polorb=0  (2s)
            splnorm:   0.15000    
               vcte:    0.0000    
               rinn:    0.0000    
               qcoe:    0.0000    
               qyuk:    0.0000    
               qwid:   0.10000E-01
                rcs:    0.0000      0.0000    
            lambdas:    1.0000      1.0000    
L=1  Nsemic=0  Cnfigmx=2
          i=1  nzeta=2  polorb=1  (2p)
            splnorm:   0.15000    
               vcte:    0.0000    
               rinn:    0.0000    
               qcoe:    0.0000    
               qyuk:    0.0000    
               qwid:   0.10000E-01
                rcs:    0.0000      0.0000    
            lambdas:    1.0000      1.0000    
-------------------------------------------------------------------------------
L=0  Nkbl=1  erefs: 0.17977+309
L=1  Nkbl=1  erefs: 0.17977+309
L=2  Nkbl=1  erefs: 0.17977+309
L=3  Nkbl=1  erefs: 0.17977+309
===============================================================================
</basis_specs>

atom: Called for C-gga                 (Z =   6)

read_vps: Pseudopotential generation method:
read_vps: ATM 3.2.2 Troullier-Martins                       
Valence charge for ps generation:    4.00000

xc_check: Exchange-correlation functional:
xc_check: GGA Perdew, Burke & Ernzerhof 1996
V l=0 = -2*Zval/r beyond r=  1.5227
V l=1 = -2*Zval/r beyond r=  1.5227
V l=2 = -2*Zval/r beyond r=  1.5227
V l=3 = -2*Zval/r beyond r=  1.5227
All V_l potentials equal beyond r=  1.4851
This should be close to max(r_c) in ps generation
All pots = -2*Zval/r beyond r=  1.5227

VLOCAL1: 99.0% of the norm of Vloc inside     19.682 Ry
VLOCAL1: 99.9% of the norm of Vloc inside     44.856 Ry
atom: Maximum radius for 4*pi*r*r*local-pseudopot. charge    1.79142
atom: Maximum radius for r*vlocal+2*Zval:    1.54183
GHOST: No ghost state for L =  0
GHOST: No ghost state for L =  1
GHOST: No ghost state for L =  2
GHOST: No ghost state for L =  3

KBgen: Kleinman-Bylander projectors: 
   l= 0   rc=  1.661951   el= -1.010689   Ekb=  5.289847   kbcos=  0.316429
   l= 1   rc=  1.661951   el= -0.388490   Ekb= -4.102504   kbcos= -0.351025
   l= 2   rc=  1.747182   el=  0.001971   Ekb= -1.006005   kbcos= -0.008530
   l= 3   rc=  1.791422   el=  0.003065   Ekb= -0.421399   kbcos= -0.001072

KBgen: Total number of Kleinman-Bylander projectors:   16
atom: -------------------------------------------------------------------------

atom: SANKEY-TYPE ORBITALS:
atom: Selected multiple-zeta basis: split     

SPLIT: Orbitals with angular momentum L= 0

SPLIT: Basis orbitals for state 2s

SPLIT: PAO cut-off radius determined from an
SPLIT: energy shift=  0.007350 Ry

   izeta = 1
                 lambda =    1.000000
                     rc =    4.632753
                 energy =   -1.003183
                kinetic =    0.861066
    potential(screened) =   -1.864249
       potential(ionic) =   -5.446202

   izeta = 2
                 rmatch =    3.431921
              splitnorm =    0.150000
                 energy =   -0.867819
                kinetic =    1.310845
    potential(screened) =   -2.178665
       potential(ionic) =   -6.002021

SPLIT: Orbitals with angular momentum L= 1

SPLIT: Basis orbitals for state 2p

SPLIT: PAO cut-off radius determined from an
SPLIT: energy shift=  0.007350 Ry

   izeta = 1
                 lambda =    1.000000
                     rc =    5.658549
                 energy =   -0.380916
                kinetic =    2.410776
    potential(screened) =   -2.791692
       potential(ionic) =   -6.235107

   izeta = 2
                 rmatch =    3.653288
              splitnorm =    0.150000
                 energy =   -0.248973
                kinetic =    3.561055
    potential(screened) =   -3.810028
       potential(ionic) =   -7.627891

POLgen: Perturbative polarization orbital with L=  2

POLgen: Polarization orbital for state 2p

   izeta = 1
                     rc =    5.658549
                 energy =    1.109759
                kinetic =    2.301035
    potential(screened) =   -1.191276
       potential(ionic) =   -4.010213
atom: Total number of Sankey-type orbitals: 13

atm_pop: Valence configuration (for local Pseudopot. screening):
 2s( 2.00)                                                            
 2p( 2.00)                                                            
Vna: chval, zval:    4.00000   4.00000

Vna:  Cut-off radius for the neutral-atom potential:   5.658549

atom: _________________________________________________________________________

<basis_specs>
===============================================================================
O-gga                Z=   8    Mass=  16.000        Charge= 0.17977+309
Lmxo=1 Lmxkb= 3    BasisType=split      Semic=F
L=0  Nsemic=0  Cnfigmx=2
          i=1  nzeta=2  polorb=0  (2s)
            splnorm:   0.15000    
               vcte:    0.0000    
               rinn:    0.0000    
               qcoe:    0.0000    
               qyuk:    0.0000    
               qwid:   0.10000E-01
                rcs:    0.0000      0.0000    
            lambdas:    1.0000      1.0000    
L=1  Nsemic=0  Cnfigmx=2
          i=1  nzeta=2  polorb=1  (2p)
            splnorm:   0.15000    
               vcte:    0.0000    
               rinn:    0.0000    
               qcoe:    0.0000    
               qyuk:    0.0000    
               qwid:   0.10000E-01
                rcs:    0.0000      0.0000    
            lambdas:    1.0000      1.0000    
-------------------------------------------------------------------------------
L=0  Nkbl=1  erefs: 0.17977+309
L=1  Nkbl=1  erefs: 0.17977+309
L=2  Nkbl=1  erefs: 0.17977+309
L=3  Nkbl=1  erefs: 0.17977+309
===============================================================================
</basis_specs>

atom: Called for O-gga                 (Z =   8)

read_vps: Pseudopotential generation method:
read_vps: ATM 3.2.2 Troullier-Martins                       
Valence charge for ps generation:    6.00000

xc_check: Exchange-correlation functional:
xc_check: GGA Perdew, Burke & Ernzerhof 1996
V l=0 = -2*Zval/r beyond r=  1.3776
V l=1 = -2*Zval/r beyond r=  1.3949
V l=2 = -2*Zval/r beyond r=  1.3776
V l=3 = -2*Zval/r beyond r=  1.3776
All V_l potentials equal beyond r=  1.3776
This should be close to max(r_c) in ps generation
All pots = -2*Zval/r beyond r=  1.3949

VLOCAL1: 99.0% of the norm of Vloc inside     22.873 Ry
VLOCAL1: 99.9% of the norm of Vloc inside     52.129 Ry
atom: Maximum radius for 4*pi*r*r*local-pseudopot. charge    1.66175
atom: Maximum radius for r*vlocal+2*Zval:    1.44823
GHOST: No ghost state for L =  0
GHOST: No ghost state for L =  1
GHOST: No ghost state for L =  2
GHOST: No ghost state for L =  3

KBgen: Kleinman-Bylander projectors: 
   l= 0   rc=  1.541657   el= -1.761148   Ekb=  4.949232   kbcos=  0.327576
   l= 1   rc=  1.522502   el= -0.663745   Ekb= -7.163637   kbcos= -0.477796
   l= 2   rc=  1.620715   el=  0.001915   Ekb= -1.528753   kbcos= -0.006094
   l= 3   rc=  1.661751   el=  0.002982   Ekb= -0.589331   kbcos= -0.000801

KBgen: Total number of Kleinman-Bylander projectors:   16
atom: -------------------------------------------------------------------------

atom: SANKEY-TYPE ORBITALS:
atom: Selected multiple-zeta basis: split     

SPLIT: Orbitals with angular momentum L= 0

SPLIT: Basis orbitals for state 2s

SPLIT: PAO cut-off radius determined from an
SPLIT: energy shift=  0.007350 Ry

   izeta = 1
                 lambda =    1.000000
                     rc =    3.652726
                 energy =   -1.753792
                kinetic =    1.561060
    potential(screened) =   -3.314852
       potential(ionic) =  -11.264547

   izeta = 2
                 rmatch =    2.510382
              splitnorm =    0.150000
                 energy =   -1.504648
                kinetic =    2.387391
    potential(screened) =   -3.892039
       potential(ionic) =  -12.461892

SPLIT: Orbitals with angular momentum L= 1

SPLIT: Basis orbitals for state 2p

SPLIT: PAO cut-off radius determined from an
SPLIT: energy shift=  0.007350 Ry

   izeta = 1
                 lambda =    1.000000
                     rc =    4.574469
                 energy =   -0.657387
                kinetic =    4.608834
    potential(screened) =   -5.266221
       potential(ionic) =  -12.911464

   izeta = 2
                 rmatch =    2.639108
              splitnorm =    0.150000
                 energy =   -0.438910
                kinetic =    6.628224
    potential(screened) =   -7.067134
       potential(ionic) =  -15.553799

POLgen: Perturbative polarization orbital with L=  2

POLgen: Polarization orbital for state 2p

   izeta = 1
                     rc =    4.574469
                 energy =    2.149151
                kinetic =    4.309338
    potential(screened) =   -2.160187
       potential(ionic) =   -8.227136
atom: Total number of Sankey-type orbitals: 13

atm_pop: Valence configuration (for local Pseudopot. screening):
 2s( 2.00)                                                            
 2p( 4.00)                                                            
Vna: chval, zval:    6.00000   6.00000

Vna:  Cut-off radius for the neutral-atom potential:   4.574469

atom: _________________________________________________________________________

<basis_specs>
===============================================================================
H-gga                Z=   1    Mass=  1.0100        Charge= 0.17977+309
Lmxo=0 Lmxkb= 2    BasisType=split      Semic=F
L=0  Nsemic=0  Cnfigmx=1
          i=1  nzeta=2  polorb=1  (1s)
            splnorm:   0.15000    
               vcte:    0.0000    
               rinn:    0.0000    
               qcoe:    0.0000    
               qyuk:    0.0000    
               qwid:   0.10000E-01
                rcs:    0.0000      0.0000    
            lambdas:    1.0000      1.0000    
-------------------------------------------------------------------------------
L=0  Nkbl=1  erefs: 0.17977+309
L=1  Nkbl=1  erefs: 0.17977+309
L=2  Nkbl=1  erefs: 0.17977+309
===============================================================================
</basis_specs>

atom: Called for H-gga                 (Z =   1)

read_vps: Pseudopotential generation method:
read_vps: ATM 3.2.2 Troullier-Martins                       
Valence charge for ps generation:    1.00000

xc_check: Exchange-correlation functional:
xc_check: GGA Perdew, Burke & Ernzerhof 1996
V l=0 = -2*Zval/r beyond r=  1.2656
V l=1 = -2*Zval/r beyond r=  1.2498
V l=2 = -2*Zval/r beyond r=  0.3563
All V_l potentials equal beyond r=  1.2656
This should be close to max(r_c) in ps generation
All pots = -2*Zval/r beyond r=  1.2656

VLOCAL1: 99.0% of the norm of Vloc inside     27.100 Ry
VLOCAL1: 99.9% of the norm of Vloc inside     61.762 Ry
atom: Maximum radius for 4*pi*r*r*local-pseudopot. charge    1.48935
atom: Maximum radius for r*vlocal+2*Zval:    1.24984
GHOST: No ghost state for L =  0
GHOST: No ghost state for L =  1
GHOST: No ghost state for L =  2

KBgen: Kleinman-Bylander projectors: 
   l= 0   rc=  1.398961   el= -0.477209   Ekb= -2.001853   kbcos= -0.352188
   l= 1   rc=  1.470814   el=  0.001006   Ekb= -0.423408   kbcos= -0.024395
   l= 2   rc=  1.489346   el=  0.001895   Ekb= -0.481957   kbcos= -0.001574

KBgen: Total number of Kleinman-Bylander projectors:    9
atom: -------------------------------------------------------------------------

atom: SANKEY-TYPE ORBITALS:
atom: Selected multiple-zeta basis: split     

SPLIT: Orbitals with angular momentum L= 0

SPLIT: Basis orbitals for state 1s

SPLIT: PAO cut-off radius determined from an
SPLIT: energy shift=  0.007350 Ry

   izeta = 1
                 lambda =    1.000000
                     rc =    5.471469
                 energy =   -0.469881
                kinetic =    0.917247
    potential(screened) =   -1.387128
       potential(ionic) =   -1.910176

   izeta = 2
                 rmatch =    3.952598
              splitnorm =    0.150000
                 energy =   -0.377124
                kinetic =    1.452454
    potential(screened) =   -1.829578
       potential(ionic) =   -2.377091

POLgen: Perturbative polarization orbital with L=  1

POLgen: Polarization orbital for state 1s

   izeta = 1
                     rc =    5.471469
                 energy =    0.628146
                kinetic =    1.274519
    potential(screened) =   -0.646373
       potential(ionic) =   -1.124360
atom: Total number of Sankey-type orbitals:  5

atm_pop: Valence configuration (for local Pseudopot. screening):
 1s( 1.00)                                                            
Vna: chval, zval:    1.00000   1.00000

Vna:  Cut-off radius for the neutral-atom potential:   5.471469

atom: _________________________________________________________________________

prinput: Basis input ----------------------------------------------------------

PAO.BasisType split     

%block ChemicalSpeciesLabel
    1    6 C-gga                   # Species index, atomic number, species label
    2    8 O-gga                   # Species index, atomic number, species label
    3    1 H-gga                   # Species index, atomic number, species label
%endblock ChemicalSpeciesLabel

%block PAO.Basis                 # Define Basis set
C-gga                 2                    # Species label, number of l-shells
 n=2   0   2                         # n, l, Nzeta 
   4.633      3.432   
   1.000      1.000   
 n=2   1   2 P   1                   # n, l, Nzeta, Polarization, NzetaPol
   5.659      3.653   
   1.000      1.000   
O-gga                 2                    # Species label, number of l-shells
 n=2   0   2                         # n, l, Nzeta 
   3.653      2.510   
   1.000      1.000   
 n=2   1   2 P   1                   # n, l, Nzeta, Polarization, NzetaPol
   4.574      2.639   
   1.000      1.000   
H-gga                 1                    # Species label, number of l-shells
 n=1   0   2 P   1                   # n, l, Nzeta, Polarization, NzetaPol
   5.471      3.953   
   1.000      1.000   
%endblock PAO.Basis

prinput: ----------------------------------------------------------------------

Dumping basis to NetCDF file C-gga.ion.nc
Dumping basis to NetCDF file O-gga.ion.nc
Dumping basis to NetCDF file H-gga.ion.nc
coor:   Atomic-coordinates input format  =     Cartesian coordinates
coor:                                          (in Angstroms)

siesta: Atomic coordinates (Bohr) and species
siesta:      1.89872  -1.07386   0.00000  1        1
siesta:      0.00000   1.11246   0.00000  1        2
siesta:     -2.38117   0.00138   0.00000  2        3
siesta:      0.27771   2.27652   1.69420  3        4
siesta:      0.27771   2.27652  -1.69420  3        5
siesta:      3.81604  -0.31010   0.00000  3        6
siesta:      1.64282  -2.24278   1.67821  3        7
siesta:      1.64282  -2.24278  -1.67821  3        8

siesta: Automatic unit cell vectors (Ang):
siesta:    9.455049    0.000000    0.000000
siesta:    0.000000    9.000487    0.000000
siesta:    0.000000    0.000000    8.342192

siesta: System type = molecule  

initatomlists: Number of atoms, orbitals, and projectors:      8    64    93

siesta: ******************** Simulation parameters ****************************
siesta:
siesta: The following are some of the parameters of the simulation.
siesta: A complete list of the parameters used, including default values,
siesta: can be found in file out.fdf
siesta:
redata: Spin configuration                          = none
redata: Number of spin components                   = 1
redata: Time-Reversal Symmetry                      = T
redata: Spin spiral                                 = F
redata: Long output                                 =   F
redata: Number of Atomic Species                    =        3
redata: Charge density info will appear in .RHO file
redata: Write Mulliken Pop.                         = NO
redata: Matel table size (NRTAB)                    =     1024
redata: Mesh Cutoff                                 =   200.0000 Ry
redata: Net charge of the system                    =     0.0000 |e|
redata: Min. number of SCF Iter                     =        0
redata: Max. number of SCF Iter                     =      150
redata: SCF convergence failure will abort job
redata: SCF mix quantity                            = Hamiltonian
redata: Mix DM or H after convergence               =   F
redata: Recompute H after scf cycle                 =   F
redata: Mix DM in first SCF step                    =   T
redata: Write Pulay info on disk                    =   F
redata: New DM Occupancy tolerance                  = 0.000000000001
redata: No kicks to SCF
redata: DM Mixing Weight for Kicks                  =     0.5000
redata: Require Harris convergence for SCF          =   F
redata: Harris energy tolerance for SCF             =     0.000100 eV
redata: Require DM convergence for SCF              =   T
redata: DM tolerance for SCF                        =     0.000100
redata: Require EDM convergence for SCF             =   F
redata: EDM tolerance for SCF                       =     0.001000 eV
redata: Require H convergence for SCF               =   T
redata: Hamiltonian tolerance for SCF               =     0.001000 eV
redata: Require (free) Energy convergence for SCF   =   F
redata: (free) Energy tolerance for SCF             =     0.000100 eV
redata: Using Saved Data (generic)                  =   F
redata: Use continuation files for DM               =   F
redata: Neglect nonoverlap interactions             =   F
redata: Method of Calculation                       = Diagonalization
redata: Electronic Temperature                      =   300.0908 K
redata: Fix the spin of the system                  =   F
redata: Dynamics option                             = FIRE coord. optimization
redata: Variable cell                               =   T
redata: Use continuation files for CG               =   F
redata: Max atomic displ per move                   =     0.1058 Ang
redata: Maximum number of optimization moves        =      200
redata: Force tolerance                             =     0.0400 eV/Ang
redata: Stress tolerance                            =     1.0000 GPa
mix.SCF: Pulay mixing                            = Pulay
mix.SCF:    Variant                              = stable
mix.SCF:    History steps                        = 5
mix.SCF:    Linear mixing weight                 =     0.100000
mix.SCF:    Mixing weight                        =     0.100000
mix.SCF:    SVD condition                        = 0.1000E-07
redata: Save all siesta data in one NC              =   F
redata: ***********************************************************************

%block SCF.Mixers
  Pulay
%endblock SCF.Mixers

%block SCF.Mixer.Pulay
  # Mixing method
  method pulay
  variant stable

  # Mixing options
  weight 0.1000
  weight.linear 0.1000
  history 5
%endblock SCF.Mixer.Pulay

DM_history_depth set to one: no extrapolation allowed by default for geometry relaxation
Size of DM history Fstack: 1
Total number of electrons:    19.000000
Total ionic charge:    19.000000

* ProcessorY, Blocksize:    1  24


* Orbital distribution balance (max,min):    64    64

 Kpoints in:            1 . Kpoints trimmed:            1

siesta: k-grid: Number of k-points =     1
siesta: k-grid: Cutoff (effective) =     4.171 Ang
siesta: k-grid: Supercell and displacements
siesta: k-grid:    1   0   0      0.000
siesta: k-grid:    0   1   0      0.000
siesta: k-grid:    0   0   1      0.000

diag: Algorithm                                     = D&C
diag: Parallel over k                               =   F
diag: Use parallel 2D distribution                  =   F
diag: Parallel block-size                           = 24
diag: Parallel distribution                         =     1 x     1
diag: Used triangular part                          = Lower
diag: Absolute tolerance                            =  0.100E-15
diag: Orthogonalization factor                      =  0.100E-05
diag: Memory factor                                 =  1.0000


ts: **************************************************************
ts: Save H and S matrices                           =    F
ts: Save DM and EDM matrices                        =    F
ts: Only save the overlap matrix S                  =    F
ts: **************************************************************

************************ Begin: TS CHECKS AND WARNINGS ************************
************************ End: TS CHECKS AND WARNINGS **************************


                     ====================================
                        Begin FIRE opt. move =      0
                     ====================================

outcell: Unit cell vectors (Ang):
        9.455049    0.000000    0.000000
        0.000000    9.000487    0.000000
        0.000000    0.000000    8.342192

outcell: Cell vector modules (Ang)   :    9.455049    9.000487    8.342192
outcell: Cell angles (23,13,12) (deg):     90.0000     90.0000     90.0000
outcell: Cell volume (Ang**3)        :    709.9209
<dSpData1D:S at geom step 0
  <sparsity:sparsity for geom step 0
    nrows_g=64 nrows=64 sparsity=1.0000 nnzs=4096, refcount: 7>
  <dData1D:(new from dSpData1D) n=4096, refcount: 1>
refcount: 1>
new_DM -- step:     1
Initializing Density Matrix...
DM filled with atomic data:
<dSpData2D:DM initialized from atoms
  <sparsity:sparsity for geom step 0
    nrows_g=64 nrows=64 sparsity=1.0000 nnzs=4096, refcount: 8>
  <dData2D:DM n=4096 m=1, refcount: 1>
refcount: 1>
No. of atoms with KB's overlaping orbs in proc 0. Max # of overlaps:       8      64
New grid distribution:   1
           1       1:   45    1:   40    1:   36

InitMesh: MESH =    90 x    80 x    72 =      518400
InitMesh: (bp) =    45 x    40 x    36 =       64800
InitMesh: Mesh cutoff (required, used) =   200.000   205.876 Ry
ExtMesh (bp) on 0 =   105 x    96 x    88 =      887040
PhiOnMesh: Number of (b)points on node 0 =                64800
PhiOnMesh: nlist on node 0 =               492100

stepf: Fermi-Dirac step function

siesta: Program's energy decomposition (eV):
siesta: Ebs     =      -198.154959
siesta: Eions   =      1255.901789
siesta: Ena     =       225.459414
siesta: Ekin    =       616.790571
siesta: Enl     =      -134.155568
siesta: Eso     =         0.000000
siesta: Edftu   =         0.000000
siesta: DEna    =       -35.834817
siesta: DUscf   =         5.730976
siesta: DUext   =         0.000000
siesta: Exc     =      -242.194009
siesta: eta*DQ  =         0.000000
siesta: Emadel  =         0.000000
siesta: Emeta   =         0.000000
siesta: Emolmec =         0.000000
siesta: Ekinion =         0.000000
siesta: Eharris =      -822.535810
siesta: Etot    =      -820.105222
siesta: FreeEng =      -820.154104

        iscf     Eharris(eV)        E_KS(eV)     FreeEng(eV)     dDmax    Ef(eV) dHmax(eV)
   scf:    1     -822.535810     -820.105222     -820.154104  1.839712 -8.225945  8.415284
timer: Routine,Calls,Time,% = IterSCF        1       0.891   8.14
   scf:    2     -821.360573     -820.972378     -821.023206  0.557065 -7.885449  5.873828
   scf:    3     -822.145503     -821.733740     -821.790946  0.369912 -6.885817  2.042459
   scf:    4     -821.692470     -821.807144     -821.862920  0.307600 -6.285701  0.785063
   scf:    5     -820.899404     -821.589015     -821.632895  0.529741 -5.995505  1.723798
   scf:    6     -821.869356     -821.744077     -821.797019  0.143375 -5.964656  0.966783
   scf:    7     -821.124961     -821.711419     -821.748201  0.648615 -6.053138  1.079777
   scf:    8     -821.786659     -821.862729     -821.920895  0.404037 -5.955611  0.380963
   scf:    9     -821.384315     -821.685943     -821.733220  0.341474 -5.973386  0.829397
   scf:   10     -821.873623     -821.870947     -821.928611  0.405590 -5.990272  0.020433
   scf:   11     -821.869682     -821.870507     -821.928391  0.019020 -5.990076  0.038428
   scf:   12     -821.866692     -821.870045     -821.927167  0.050100 -5.985662  0.064019
   scf:   13     -821.869973     -821.870923     -821.928691  0.040782 -5.984619  0.014460
   scf:   14     -821.870611     -821.870972     -821.928476  0.018621 -5.982528  0.027707
   scf:   15     -821.870826     -821.871014     -821.928726  0.014517 -5.982042  0.001221
   scf:   16     -821.871019     -821.871016     -821.928726  0.000160 -5.982086  0.001211
   scf:   17     -821.871014     -821.871015     -821.928726  0.000166 -5.982177  0.000403
   scf:   18     -821.871016     -821.871015     -821.928726  0.000036 -5.982164  0.000313

SCF Convergence by DM+H criterion
max |DM_out - DM_in|         :     0.0000356612
max |H_out - H_in|      (eV) :     0.0003134340
SCF cycle converged after 18 iterations

Using DM_out to compute the final energy and forces
No. of atoms with KB's overlaping orbs in proc 0. Max # of overlaps:       8      64

siesta: E_KS(eV) =             -821.8710

siesta: E_KS - E_eggbox =      -821.8710

siesta: Atomic forces (eV/Ang):
----------------------------------------
   Tot   -0.001613    0.004869   -0.000000
----------------------------------------
   Max    1.716425
   Res    0.613160    sqrt( Sum f_i^2 / 3N )
----------------------------------------
   Max    1.716425    constrained

Stress tensor Voigt[x,y,z,yz,xz,xy] (kbar):       -2.24       -2.70       -5.24        0.00        0.00        1.10
(Free)E + p*V (eV/cell)     -820.4261
Target enthalpy (eV/cell)     -821.9287

siesta: Stress tensor (static) (eV/Ang**3):
        -0.001395    0.000689    0.000000
         0.000689   -0.001682    0.000000
         0.000000    0.000000   -0.003273

siesta: Pressure (static):          3.39130508  kBar

siesta: Stress tensor (total) (eV/Ang**3):
        -0.001395    0.000689    0.000000
         0.000689   -0.001682    0.000000
         0.000000    0.000000   -0.003273

siesta: Pressure (total):          3.39130508  kBar
FIRE: No of elements:     30

Broyden_optim: No target stress found, assuming hydrostatic MD.TargetPressure.

Broyden_optim: Target stress (kBar)
get_target_stress:        -0.000       0.000       0.000
get_target_stress:         0.000      -0.000       0.000
get_target_stress:         0.000       0.000      -0.000

                     ====================================
                        Begin FIRE opt. move =      1
                     ====================================

outcell: Unit cell vectors (Ang):
        9.458904   -0.001903   -0.000000
       -0.001812    9.004911   -0.000000
       -0.000000   -0.000000    8.350170

outcell: Cell vector modules (Ang)   :    9.458904    9.004911    8.350170
outcell: Cell angles (23,13,12) (deg):     90.0000     90.0000     90.0231
outcell: Cell volume (Ang**3)        :    711.2390
<dSpData1D:S at geom step 1
  <sparsity:sparsity for geom step 1
    nrows_g=64 nrows=64 sparsity=1.0000 nnzs=4096, refcount: 7>
  <dData1D:(new from dSpData1D) n=4096, refcount: 1>
refcount: 1>
new_DM -- step:     2
Re-using DM from previous geometries...
Number of DMs in history: 1
 DM extrapolation coefficients: 
1   1.00000
New DM after history re-use:
<dSpData2D:SpM extrapolated using coords
  <sparsity:sparsity for geom step 1
    nrows_g=64 nrows=64 sparsity=1.0000 nnzs=4096, refcount: 9>
  <dData2D:(temp array for extrapolation) n=4096 m=1, refcount: 1>
refcount: 1>
No. of atoms with KB's overlaping orbs in proc 0. Max # of overlaps:       8      64
New grid distribution:   1
           1       1:   45    1:   40    1:   36

InitMesh: MESH =    90 x    80 x    72 =      518400
InitMesh: (bp) =    45 x    40 x    36 =       64800
InitMesh: Mesh cutoff (required, used) =   200.000   205.483 Ry
ExtMesh (bp) on 0 =   105 x    96 x    88 =      887040
PhiOnMesh: Number of (b)points on node 0 =                64800
PhiOnMesh: nlist on node 0 =               491220

        iscf     Eharris(eV)        E_KS(eV)     FreeEng(eV)     dDmax    Ef(eV) dHmax(eV)
   scf:    1     -821.596528     -821.859338     -821.913529  0.289443 -5.799875  1.077958
   scf:    2     -820.735466     -821.617716     -821.653566  0.554303 -6.096630  2.428125
   scf:    3     -821.905297     -821.800291     -821.842066  0.037467 -5.918872  0.804412
   scf:    4     -821.737112     -821.769534     -821.807290  0.027660 -5.919095  0.952129
   scf:    5     -820.781927     -821.687765     -821.724788  0.812824 -5.914639  1.021400
   scf:    6     -821.933720     -821.939016     -821.996977  0.456238 -5.963795  0.051268
   scf:    7     -821.929519     -821.935657     -821.992932  0.048916 -5.970428  0.126988
   scf:    8     -821.917222     -821.934487     -821.992608  0.115891 -5.969359  0.112693
   scf:    9     -821.933872     -821.938504     -821.996269  0.085243 -5.970251  0.059950
   scf:   10     -821.932605     -821.937603     -821.995769  0.058275 -5.970986  0.064011
   scf:   11     -821.939358     -821.939123     -821.997148  0.033066 -5.972585  0.002022
   scf:   12     -821.939119     -821.939121     -821.997148  0.000303 -5.972854  0.001671
   scf:   13     -821.939123     -821.939122     -821.997148  0.000117 -5.973289  0.000863
   scf:   14     -821.939122     -821.939122     -821.997148  0.000026 -5.973438  0.000643

SCF Convergence by DM+H criterion
max |DM_out - DM_in|         :     0.0000255853
max |H_out - H_in|      (eV) :     0.0006431303
SCF cycle converged after 14 iterations

Using DM_out to compute the final energy and forces
No. of atoms with KB's overlaping orbs in proc 0. Max # of overlaps:       8      64

siesta: E_KS(eV) =             -821.9391

siesta: Atomic forces (eV/Ang):
----------------------------------------
   Tot    0.003810    0.011743   -0.000000
----------------------------------------
   Max    0.606769
   Res    0.282626    sqrt( Sum f_i^2 / 3N )
----------------------------------------
   Max    0.606769    constrained

Stress tensor Voigt[x,y,z,yz,xz,xy] (kbar):       -3.29       -1.96       -2.10        0.00        0.00        1.09
(Free)E + p*V (eV/cell)     -820.9098
Target enthalpy (eV/cell)     -821.9971

siesta: Stress tensor (static) (eV/Ang**3):
        -0.002054    0.000681    0.000000
         0.000681   -0.001220    0.000000
         0.000000    0.000000   -0.001312

siesta: Pressure (static):          2.44945773  kBar

siesta: Stress tensor (total) (eV/Ang**3):
        -0.002054    0.000681    0.000000
         0.000681   -0.001220    0.000000
         0.000000    0.000000   -0.001312

siesta: Pressure (total):          2.44945773  kBar

                     ====================================
                        Begin FIRE opt. move =      2
                     ====================================

outcell: Unit cell vectors (Ang):
        9.473938   -0.008013   -0.000000
       -0.007628    9.017455   -0.000000
       -0.000000   -0.000000    8.369095

outcell: Cell vector modules (Ang)   :    9.473942    9.017458    8.369095
outcell: Cell angles (23,13,12) (deg):     90.0000     90.0000     90.0969
outcell: Cell volume (Ang**3)        :    714.9781
<dSpData1D:S at geom step 2
  <sparsity:sparsity for geom step 2
    nrows_g=64 nrows=64 sparsity=1.0000 nnzs=4096, refcount: 7>
  <dData1D:(new from dSpData1D) n=4096, refcount: 1>
refcount: 1>
new_DM -- step:     3
Re-using DM from previous geometries...
Number of DMs in history: 1
 DM extrapolation coefficients: 
1   1.00000
New DM after history re-use:
<dSpData2D:SpM extrapolated using coords
  <sparsity:sparsity for geom step 2
    nrows_g=64 nrows=64 sparsity=1.0000 nnzs=4096, refcount: 9>
  <dData2D:(temp array for extrapolation) n=4096 m=1, refcount: 1>
refcount: 1>
Note: For starting DM, Qtot, Tr[D*S] =         19.00000000         18.94562904
No. of atoms with KB's overlaping orbs in proc 0. Max # of overlaps:       8      64
New grid distribution:   1
           1       1:   45    1:   40    1:   36

InitMesh: MESH =    90 x    80 x    72 =      518400
InitMesh: (bp) =    45 x    40 x    36 =       64800
InitMesh: Mesh cutoff (required, used) =   200.000   204.555 Ry
ExtMesh (bp) on 0 =   105 x    96 x    88 =      887040
PhiOnMesh: Number of (b)points on node 0 =                64800
PhiOnMesh: nlist on node 0 =               488642

        iscf     Eharris(eV)        E_KS(eV)     FreeEng(eV)     dDmax    Ef(eV) dHmax(eV)
   scf:    1     -821.079832     -821.707513     -821.748993  0.452857 -5.531063  2.226645
   scf:    2     -819.074724     -821.108645     -821.144494  0.631620 -6.309777  4.569678
   scf:    3     -821.875357     -821.674539     -821.716288  0.070487 -5.841973  1.122296
   scf:    4     -821.589753     -821.633080     -821.670655  0.025405 -5.835601  1.303215
   scf:    5     -820.933904     -821.722397     -821.758345  0.721337 -5.846250  1.089571
   scf:    6     -821.200661     -821.769507     -821.819216  0.612696 -5.901267  0.831507
   scf:    7     -821.545062     -821.843386     -821.893334  0.492673 -5.914304  0.477218
   scf:    8     -821.859580     -821.851635     -821.902570  0.014169 -5.915238  0.444760
   scf:    9     -821.899314     -821.877720     -821.931792  0.054907 -5.918993  0.314370
   scf:   10     -821.862689     -821.897926     -821.956057  0.193475 -5.926709  0.132336
   scf:   11     -821.902561     -821.903510     -821.961366  0.066268 -5.925808  0.021564
   scf:   12     -821.903500     -821.903541     -821.961479  0.007137 -5.927636  0.007471
   scf:   13     -821.903449     -821.903504     -821.961477  0.003427 -5.927962  0.003351
   scf:   14     -821.903535     -821.903520     -821.961482  0.001101 -5.928318  0.002798
   scf:   15     -821.903547     -821.903534     -821.961484  0.001166 -5.928615  0.000817
   scf:   16     -821.903534     -821.903534     -821.961484  0.000042 -5.928698  0.000661

SCF Convergence by DM+H criterion
max |DM_out - DM_in|         :     0.0000417602
max |H_out - H_in|      (eV) :     0.0006614017
SCF cycle converged after 16 iterations

Using DM_out to compute the final energy and forces
No. of atoms with KB's overlaping orbs in proc 0. Max # of overlaps:       8      64

siesta: E_KS(eV) =             -821.9035

siesta: Atomic forces (eV/Ang):
----------------------------------------
   Tot    0.026131    0.016232    0.000000
----------------------------------------
   Max    1.662111
   Res    0.635406    sqrt( Sum f_i^2 / 3N )
----------------------------------------
   Max    1.662111    constrained

Stress tensor Voigt[x,y,z,yz,xz,xy] (kbar):       -5.70       -0.21        3.88        0.00        0.00        0.61
(Free)E + p*V (eV/cell)     -821.6603
Target enthalpy (eV/cell)     -821.9615

siesta: Stress tensor (static) (eV/Ang**3):
        -0.003558    0.000380    0.000000
         0.000380   -0.000130    0.000000
         0.000000    0.000000    0.002424

siesta: Pressure (static):          0.67496633  kBar

siesta: Stress tensor (total) (eV/Ang**3):
        -0.003558    0.000380    0.000000
         0.000380   -0.000130    0.000000
         0.000000    0.000000    0.002424

siesta: Pressure (total):          0.67496633  kBar

                     ====================================
                        Begin FIRE opt. move =      3
                     ====================================

outcell: Unit cell vectors (Ang):
        9.483839   -0.009070   -0.000000
       -0.008634    9.017799   -0.000000
       -0.000000   -0.000000    8.363143

outcell: Cell vector modules (Ang)   :    9.483843    9.017804    8.363143
outcell: Cell angles (23,13,12) (deg):     90.0000     90.0000     90.1097
outcell: Cell volume (Ang**3)        :    715.2434
<dSpData1D:S at geom step 3
  <sparsity:sparsity for geom step 3
    nrows_g=64 nrows=64 sparsity=1.0000 nnzs=4096, refcount: 7>
  <dData1D:(new from dSpData1D) n=4096, refcount: 1>
refcount: 1>
new_DM -- step:     4
Re-using DM from previous geometries...
Number of DMs in history: 1
 DM extrapolation coefficients: 
1   1.00000
New DM after history re-use:
<dSpData2D:SpM extrapolated using coords
  <sparsity:sparsity for geom step 3
    nrows_g=64 nrows=64 sparsity=1.0000 nnzs=4096, refcount: 9>
  <dData2D:(temp array for extrapolation) n=4096 m=1, refcount: 1>
refcount: 1>
No. of atoms with KB's overlaping orbs in proc 0. Max # of overlaps:       8      64
New grid distribution:   1
           1       1:   45    1:   40    1:   36

InitMesh: MESH =    90 x    80 x    72 =      518400
InitMesh: (bp) =    45 x    40 x    36 =       64800
InitMesh: Mesh cutoff (required, used) =   200.000   204.846 Ry
ExtMesh (bp) on 0 =   105 x    96 x    88 =      887040
PhiOnMesh: Number of (b)points on node 0 =                64800
PhiOnMesh: nlist on node 0 =               488586

        iscf     Eharris(eV)        E_KS(eV)     FreeEng(eV)     dDmax    Ef(eV) dHmax(eV)
   scf:    1     -822.215682     -821.920526     -821.976189  0.226023 -6.117976  0.900439
   scf:    2     -820.930025     -821.680487     -821.716338  0.538188 -5.547392  1.930033
   scf:    3     -821.983606     -821.867471     -821.915254  0.107586 -5.986300  0.688457
   scf:    4     -821.733049     -821.804125     -821.844630  0.073062 -5.955323  0.932689
   scf:    5     -821.117827     -821.795503     -821.838868  0.704565 -5.949778  0.821559
   scf:    6     -821.917651     -821.860317     -821.910017  0.073771 -5.949778  0.652046
   scf:    7     -821.879951     -821.959949     -822.016949  0.368484 -5.960970  0.188364
   scf:    8     -821.971887     -821.968141     -822.026094  0.058132 -5.962189  0.057331
   scf:    9     -821.962240     -821.965626     -822.023255  0.026011 -5.964450  0.114872
   scf:   10     -821.964831     -821.968428     -822.026596  0.069470 -5.963528  0.041218
   scf:   11     -821.968922     -821.968939     -822.027063  0.020361 -5.965068  0.003762
   scf:   12     -821.968906     -821.968929     -822.027066  0.003101 -5.965173  0.002895
   scf:   13     -821.968941     -821.968936     -822.027069  0.001202 -5.964995  0.000739
   scf:   14     -821.968937     -821.968936     -822.027069  0.000071 -5.964955  0.000592

SCF Convergence by DM+H criterion
max |DM_out - DM_in|         :     0.0000705417
max |H_out - H_in|      (eV) :     0.0005924508
SCF cycle converged after 14 iterations

Using DM_out to compute the final energy and forces
No. of atoms with KB's overlaping orbs in proc 0. Max # of overlaps:       8      64

siesta: E_KS(eV) =             -821.9689

siesta: Atomic forces (eV/Ang):
----------------------------------------
   Tot    0.021554    0.011935    0.000000
----------------------------------------
   Max    0.470782
   Res    0.203884    sqrt( Sum f_i^2 / 3N )
----------------------------------------
   Max    0.470782    constrained

Stress tensor Voigt[x,y,z,yz,xz,xy] (kbar):       -1.58        0.25        2.05        0.00        0.00        1.26
(Free)E + p*V (eV/cell)     -822.1337
Target enthalpy (eV/cell)     -822.0271

siesta: Stress tensor (static) (eV/Ang**3):
        -0.000988    0.000786    0.000000
         0.000786    0.000156    0.000000
         0.000000    0.000000    0.001280

siesta: Pressure (static):         -0.23886318  kBar

siesta: Stress tensor (total) (eV/Ang**3):
        -0.000988    0.000786    0.000000
         0.000786    0.000156    0.000000
         0.000000    0.000000    0.001280

siesta: Pressure (total):         -0.23886318  kBar

                     ====================================
                        Begin FIRE opt. move =      4
                     ====================================

outcell: Unit cell vectors (Ang):
        9.494283   -0.011240   -0.000000
       -0.010700    9.017879   -0.000000
       -0.000000   -0.000000    8.356034

outcell: Cell vector modules (Ang)   :    9.494290    9.017886    8.356034
outcell: Cell angles (23,13,12) (deg):     90.0000     90.0000     90.1358
outcell: Cell volume (Ang**3)        :    715.4285
<dSpData1D:S at geom step 4
  <sparsity:sparsity for geom step 4
    nrows_g=64 nrows=64 sparsity=1.0000 nnzs=4096, refcount: 7>
  <dData1D:(new from dSpData1D) n=4096, refcount: 1>
refcount: 1>
new_DM -- step:     5
Re-using DM from previous geometries...
Number of DMs in history: 1
 DM extrapolation coefficients: 
1   1.00000
New DM after history re-use:
<dSpData2D:SpM extrapolated using coords
  <sparsity:sparsity for geom step 4
    nrows_g=64 nrows=64 sparsity=1.0000 nnzs=4096, refcount: 9>
  <dData2D:(temp array for extrapolation) n=4096 m=1, refcount: 1>
refcount: 1>
No. of atoms with KB's overlaping orbs in proc 0. Max # of overlaps:       8      64
New grid distribution:   1
           1       1:   45    1:   40    1:   36

InitMesh: MESH =    90 x    80 x    72 =      518400
InitMesh: (bp) =    45 x    40 x    36 =       64800
InitMesh: Mesh cutoff (required, used) =   200.000   205.195 Ry
ExtMesh (bp) on 0 =   105 x    96 x    88 =      887040
PhiOnMesh: Number of (b)points on node 0 =                64800
PhiOnMesh: nlist on node 0 =               488621

        iscf     Eharris(eV)        E_KS(eV)     FreeEng(eV)     dDmax    Ef(eV) dHmax(eV)
   scf:    1     -822.157852     -821.915084     -821.969910  0.226069 -6.157765  0.984763
   scf:    2     -820.782396     -821.632524     -821.668375  0.590825 -5.516806  2.317805
   scf:    3     -821.991130     -821.853128     -821.901914  0.127082 -6.013439  0.687973
   scf:    4     -821.691047     -821.777057     -821.817939  0.088493 -5.977222  0.941286
   scf:    5     -821.145836     -821.804453     -821.846734  0.756694 -5.981644  0.763639
   scf:    6     -821.869775     -821.838114     -821.884181  0.039698 -5.978718  0.686145
   scf:    7     -821.889035     -821.957816     -822.015547  0.398468 -5.988556  0.150095
   scf:    8     -821.966273     -821.963496     -822.021636  0.049701 -5.990317  0.049114
   scf:    9     -821.955688     -821.960267     -822.018181  0.034331 -5.992238  0.116253
   scf:   10     -821.954299     -821.962548     -822.020526  0.094514 -5.992535  0.075897
   scf:   11     -821.963355     -821.964110     -822.022278  0.044957 -5.993971  0.012543
   scf:   12     -821.964170     -821.964172     -822.022335  0.007326 -5.994358  0.001943
   scf:   13     -821.964171     -821.964172     -822.022336  0.000552 -5.994053  0.000768
   scf:   14     -821.964172     -821.964172     -822.022336  0.000026 -5.994023  0.000617

SCF Convergence by DM+H criterion
max |DM_out - DM_in|         :     0.0000256471
max |H_out - H_in|      (eV) :     0.0006173869
SCF cycle converged after 14 iterations

Using DM_out to compute the final energy and forces
No. of atoms with KB's overlaping orbs in proc 0. Max # of overlaps:       8      64

siesta: E_KS(eV) =             -821.9642

siesta: Atomic forces (eV/Ang):
----------------------------------------
   Tot   -0.007277    0.011033    0.000000
----------------------------------------
   Max    0.715379
   Res    0.294519    sqrt( Sum f_i^2 / 3N )
----------------------------------------
   Max    0.715379    constrained

Stress tensor Voigt[x,y,z,yz,xz,xy] (kbar):        1.79        0.49       -0.33        0.00        0.00        1.49
(Free)E + p*V (eV/cell)     -822.3117
Target enthalpy (eV/cell)     -822.0223

siesta: Stress tensor (static) (eV/Ang**3):
         0.001118    0.000933    0.000000
         0.000933    0.000303    0.000000
         0.000000    0.000000   -0.000207

siesta: Pressure (static):         -0.64810406  kBar

siesta: Stress tensor (total) (eV/Ang**3):
         0.001118    0.000933    0.000000
         0.000933    0.000303    0.000000
         0.000000    0.000000   -0.000207

siesta: Pressure (total):         -0.64810406  kBar

                     ====================================
                        Begin FIRE opt. move =      5
                     ====================================

outcell: Unit cell vectors (Ang):
        9.493505   -0.011890   -0.000000
       -0.011318    9.017679   -0.000000
       -0.000000   -0.000000    8.356162

outcell: Cell vector modules (Ang)   :    9.493513    9.017686    8.356162
outcell: Cell angles (23,13,12) (deg):     90.0000     90.0000     90.1437
outcell: Cell volume (Ang**3)        :    715.3647
<dSpData1D:S at geom step 5
  <sparsity:sparsity for geom step 5
    nrows_g=64 nrows=64 sparsity=1.0000 nnzs=4096, refcount: 7>
  <dData1D:(new from dSpData1D) n=4096, refcount: 1>
refcount: 1>
new_DM -- step:     6
Re-using DM from previous geometries...
Number of DMs in history: 1
 DM extrapolation coefficients: 
1   1.00000
New DM after history re-use:
<dSpData2D:SpM extrapolated using coords
  <sparsity:sparsity for geom step 5
    nrows_g=64 nrows=64 sparsity=1.0000 nnzs=4096, refcount: 9>
  <dData2D:(temp array for extrapolation) n=4096 m=1, refcount: 1>
refcount: 1>
No. of atoms with KB's overlaping orbs in proc 0. Max # of overlaps:       8      64
New grid distribution:   1
           1       1:   45    1:   40    1:   36

InitMesh: MESH =    90 x    80 x    72 =      518400
InitMesh: (bp) =    45 x    40 x    36 =       64800
InitMesh: Mesh cutoff (required, used) =   200.000   205.188 Ry
ExtMesh (bp) on 0 =   105 x    96 x    88 =      887040
PhiOnMesh: Number of (b)points on node 0 =                64800
PhiOnMesh: nlist on node 0 =               488653

        iscf     Eharris(eV)        E_KS(eV)     FreeEng(eV)     dDmax    Ef(eV) dHmax(eV)
   scf:    1     -821.917150     -821.967948     -822.026033  0.038324 -5.974550  0.103554
   scf:    2     -821.607437     -821.856256     -821.904096  0.332930 -6.008270  0.704767
   scf:    3     -821.973177     -821.969242     -822.027403  0.296110 -5.982153  0.036067
   scf:    4     -821.967407     -821.968752     -822.026887  0.026859 -5.990352  0.042299
   scf:    5     -821.969485     -821.969245     -822.027411  0.014592 -5.989934  0.012124
   scf:    6     -821.969310     -821.969303     -822.027470  0.006664 -5.989699  0.001579
   scf:    7     -821.969284     -821.969297     -822.027462  0.002618 -5.989597  0.005130
   scf:    8     -821.969302     -821.969303     -822.027470  0.002438 -5.989689  0.000135
   scf:    9     -821.969303     -821.969303     -822.027470  0.000011 -5.989706  0.000102

SCF Convergence by DM+H criterion
max |DM_out - DM_in|         :     0.0000105562
max |H_out - H_in|      (eV) :     0.0001015691
SCF cycle converged after 9 iterations

Using DM_out to compute the final energy and forces
No. of atoms with KB's overlaping orbs in proc 0. Max # of overlaps:       8      64

siesta: E_KS(eV) =             -821.9693

siesta: Atomic forces (eV/Ang):
----------------------------------------
   Tot   -0.009072    0.008625    0.000000
----------------------------------------
   Max    0.605022
   Res    0.251373    sqrt( Sum f_i^2 / 3N )
----------------------------------------
   Max    0.605022    constrained

Stress tensor Voigt[x,y,z,yz,xz,xy] (kbar):        1.39        0.41       -0.18        0.00        0.00        1.37
(Free)E + p*V (eV/cell)     -822.2680
Target enthalpy (eV/cell)     -822.0275

siesta: Stress tensor (static) (eV/Ang**3):
         0.000866    0.000855    0.000000
         0.000855    0.000254    0.000000
         0.000000    0.000000   -0.000111

siesta: Pressure (static):         -0.53868374  kBar

siesta: Stress tensor (total) (eV/Ang**3):
         0.000866    0.000855    0.000000
         0.000855    0.000254    0.000000
         0.000000    0.000000   -0.000111

siesta: Pressure (total):         -0.53868374  kBar

                     ====================================
                        Begin FIRE opt. move =      6
                     ====================================

outcell: Unit cell vectors (Ang):
        9.492584   -0.012693   -0.000000
       -0.012083    9.017436   -0.000000
       -0.000000   -0.000000    8.356301

outcell: Cell vector modules (Ang)   :    9.492592    9.017444    8.356301
outcell: Cell angles (23,13,12) (deg):     90.0000     90.0000     90.1534
outcell: Cell volume (Ang**3)        :    715.2878
<dSpData1D:S at geom step 6
  <sparsity:sparsity for geom step 6
    nrows_g=64 nrows=64 sparsity=1.0000 nnzs=4096, refcount: 7>
  <dData1D:(new from dSpData1D) n=4096, refcount: 1>
refcount: 1>
new_DM -- step:     7
Re-using DM from previous geometries...
Number of DMs in history: 1
 DM extrapolation coefficients: 
1   1.00000
New DM after history re-use:
<dSpData2D:SpM extrapolated using coords
  <sparsity:sparsity for geom step 6
    nrows_g=64 nrows=64 sparsity=1.0000 nnzs=4096, refcount: 9>
  <dData2D:(temp array for extrapolation) n=4096 m=1, refcount: 1>
refcount: 1>
No. of atoms with KB's overlaping orbs in proc 0. Max # of overlaps:       8      64
New grid distribution:   1
           1       1:   45    1:   40    1:   36

InitMesh: MESH =    90 x    80 x    72 =      518400
InitMesh: (bp) =    45 x    40 x    36 =       64800
InitMesh: Mesh cutoff (required, used) =   200.000   205.182 Ry
ExtMesh (bp) on 0 =   105 x    96 x    88 =      887040
PhiOnMesh: Number of (b)points on node 0 =                64800
PhiOnMesh: nlist on node 0 =               488620

        iscf     Eharris(eV)        E_KS(eV)     FreeEng(eV)     dDmax    Ef(eV) dHmax(eV)
   scf:    1     -821.909324     -821.972445     -822.030454  0.046650 -5.965951  0.124888
   scf:    2     -821.509580     -821.829771     -821.874745  0.375052 -6.003859  0.816544
   scf:    3     -821.982736     -821.974265     -822.032425  0.326952 -5.975364  0.047136
   scf:    4     -821.965186     -821.971716     -822.029645  0.057644 -5.985346  0.098492
   scf:    5     -821.975270     -821.973948     -822.032071  0.027499 -5.984868  0.040231
   scf:    6     -821.974390     -821.974427     -822.032595  0.020815 -5.984459  0.001879
   scf:    7     -821.974413     -821.974421     -822.032589  0.001611 -5.984292  0.004757
   scf:    8     -821.974429     -821.974429     -822.032596  0.002229 -5.984370  0.000168
   scf:    9     -821.974429     -821.974429     -822.032596  0.000023 -5.984386  0.000124

SCF Convergence by DM+H criterion
max |DM_out - DM_in|         :     0.0000230689
max |H_out - H_in|      (eV) :     0.0001242410
SCF cycle converged after 9 iterations

Using DM_out to compute the final energy and forces
No. of atoms with KB's overlaping orbs in proc 0. Max # of overlaps:       8      64

siesta: E_KS(eV) =             -821.9744

siesta: Atomic forces (eV/Ang):
----------------------------------------
   Tot   -0.007977    0.008479   -0.000000
----------------------------------------
   Max    0.466369
   Res    0.199641    sqrt( Sum f_i^2 / 3N )
----------------------------------------
   Max    0.466369    constrained

Stress tensor Voigt[x,y,z,yz,xz,xy] (kbar):        0.91        0.32        0.01        0.00       -0.00        1.22
(Free)E + p*V (eV/cell)     -822.2173
Target enthalpy (eV/cell)     -822.0326

siesta: Stress tensor (static) (eV/Ang**3):
         0.000567    0.000764   -0.000000
         0.000764    0.000199   -0.000000
        -0.000000    0.000000    0.000008

siesta: Pressure (static):         -0.41378103  kBar

siesta: Stress tensor (total) (eV/Ang**3):
         0.000567    0.000764   -0.000000
         0.000764    0.000199   -0.000000
        -0.000000    0.000000    0.000008

siesta: Pressure (total):         -0.41378103  kBar

                     ====================================
                        Begin FIRE opt. move =      7
                     ====================================

outcell: Unit cell vectors (Ang):
        9.491437   -0.013794   -0.000000
       -0.013131    9.017119   -0.000000
       -0.000000   -0.000000    8.356440

outcell: Cell vector modules (Ang)   :    9.491447    9.017129    8.356440
outcell: Cell angles (23,13,12) (deg):     90.0000     90.0000     90.1667
outcell: Cell volume (Ang**3)        :    715.1879
<dSpData1D:S at geom step 7
  <sparsity:sparsity for geom step 7
    nrows_g=64 nrows=64 sparsity=1.0000 nnzs=4096, refcount: 7>
  <dData1D:(new from dSpData1D) n=4096, refcount: 1>
refcount: 1>
new_DM -- step:     8
Re-using DM from previous geometries...
Number of DMs in history: 1
 DM extrapolation coefficients: 
1   1.00000
New DM after history re-use:
<dSpData2D:SpM extrapolated using coords
  <sparsity:sparsity for geom step 7
    nrows_g=64 nrows=64 sparsity=1.0000 nnzs=4096, refcount: 9>
  <dData2D:(temp array for extrapolation) n=4096 m=1, refcount: 1>
refcount: 1>
No. of atoms with KB's overlaping orbs in proc 0. Max # of overlaps:       8      64
New grid distribution:   1
           1       1:   45    1:   40    1:   36

InitMesh: MESH =    90 x    80 x    72 =      518400
InitMesh: (bp) =    45 x    40 x    36 =       64800
InitMesh: Mesh cutoff (required, used) =   200.000   205.175 Ry
ExtMesh (bp) on 0 =   105 x    96 x    88 =      887040
PhiOnMesh: Number of (b)points on node 0 =                64800
PhiOnMesh: nlist on node 0 =               488691

        iscf     Eharris(eV)        E_KS(eV)     FreeEng(eV)     dDmax    Ef(eV) dHmax(eV)
   scf:    1     -821.889643     -821.975835     -822.033651  0.062757 -5.953174  0.161742
   scf:    2     -821.361440     -821.789090     -821.829722  0.429568 -5.994554  0.982263
   scf:    3     -822.000943     -821.978615     -822.036755  0.355009 -5.965873  0.071532
   scf:    4     -821.851347     -821.940102     -821.994613  0.202686 -5.975304  0.391397
   scf:    5     -821.990983     -821.977486     -822.035432  0.139422 -5.977397  0.083418
   scf:    6     -821.979243     -821.979373     -822.037538  0.040631 -5.978000  0.006353
   scf:    7     -821.979366     -821.979374     -822.037535  0.002606 -5.977133  0.004630
   scf:    8     -821.979313     -821.979359     -822.037526  0.005132 -5.977261  0.006874
   scf:    9     -821.979380     -821.979377     -822.037540  0.003319 -5.977101  0.000414
   scf:   10     -821.979376     -821.979376     -822.037540  0.000178 -5.977125  0.000134
   scf:   11     -821.979376     -821.979376     -822.037540  0.000027 -5.977198  0.000031

SCF Convergence by DM+H criterion
max |DM_out - DM_in|         :     0.0000272458
max |H_out - H_in|      (eV) :     0.0000314888
SCF cycle converged after 11 iterations

Using DM_out to compute the final energy and forces
No. of atoms with KB's overlaping orbs in proc 0. Max # of overlaps:       8      64

siesta: E_KS(eV) =             -821.9794

siesta: Atomic forces (eV/Ang):
----------------------------------------
   Tot    0.003634    0.008090   -0.000000
----------------------------------------
   Max    0.369094
   Res    0.134459    sqrt( Sum f_i^2 / 3N )
----------------------------------------
   Max    0.369094    constrained

Stress tensor Voigt[x,y,z,yz,xz,xy] (kbar):        0.27        0.20        0.25       -0.00        0.00        1.03
(Free)E + p*V (eV/cell)     -822.1446
Target enthalpy (eV/cell)     -822.0375

siesta: Stress tensor (static) (eV/Ang**3):
         0.000171    0.000644   -0.000000
         0.000644    0.000123   -0.000000
         0.000000   -0.000000    0.000155

siesta: Pressure (static):         -0.23989757  kBar

siesta: Stress tensor (total) (eV/Ang**3):
         0.000171    0.000644   -0.000000
         0.000644    0.000123   -0.000000
         0.000000   -0.000000    0.000155

siesta: Pressure (total):         -0.23989757  kBar

                     ====================================
                        Begin FIRE opt. move =      8
                     ====================================

outcell: Unit cell vectors (Ang):
        9.490240   -0.015190    0.000000
       -0.014460    9.016752   -0.000000
        0.000000   -0.000000    8.356503

outcell: Cell vector modules (Ang)   :    9.490252    9.016764    8.356503
outcell: Cell angles (23,13,12) (deg):     90.0000     90.0000     90.1836
outcell: Cell volume (Ang**3)        :    715.0737
<dSpData1D:S at geom step 8
  <sparsity:sparsity for geom step 8
    nrows_g=64 nrows=64 sparsity=1.0000 nnzs=4096, refcount: 7>
  <dData1D:(new from dSpData1D) n=4096, refcount: 1>
refcount: 1>
new_DM -- step:     9
Re-using DM from previous geometries...
Number of DMs in history: 1
 DM extrapolation coefficients: 
1   1.00000
New DM after history re-use:
<dSpData2D:SpM extrapolated using coords
  <sparsity:sparsity for geom step 8
    nrows_g=64 nrows=64 sparsity=1.0000 nnzs=4096, refcount: 9>
  <dData2D:(temp array for extrapolation) n=4096 m=1, refcount: 1>
refcount: 1>
No. of atoms with KB's overlaping orbs in proc 0. Max # of overlaps:       8      64
New grid distribution:   1
           1       1:   45    1:   40    1:   36

InitMesh: MESH =    90 x    80 x    72 =      518400
InitMesh: (bp) =    45 x    40 x    36 =       64800
InitMesh: Mesh cutoff (required, used) =   200.000   205.172 Ry
ExtMesh (bp) on 0 =   105 x    96 x    88 =      887040
PhiOnMesh: Number of (b)points on node 0 =                64800
PhiOnMesh: nlist on node 0 =               488759

        iscf     Eharris(eV)        E_KS(eV)     FreeEng(eV)     dDmax    Ef(eV) dHmax(eV)
   scf:    1     -821.872605     -821.977334     -822.034883  0.076509 -5.940817  0.185728
   scf:    2     -821.267435     -821.764571     -821.802945  0.458624 -5.978912  1.097603
   scf:    3     -822.019098     -821.980497     -822.038599  0.357513 -5.955683  0.096549
   scf:    4     -821.968895     -821.979539     -822.037288  0.087995 -5.956918  0.114469
   scf:    5     -821.979943     -821.979766     -822.037532  0.001546 -5.968617  0.103892
   scf:    6     -821.981857     -821.982519     -822.040677  0.052306 -5.967940  0.008858
   scf:    7     -821.982497     -821.982508     -822.040668  0.000812 -5.968055  0.010629
   scf:    8     -821.982565     -821.982551     -822.040700  0.004681 -5.968181  0.000286
   scf:    9     -821.982551     -821.982551     -822.040700  0.000037 -5.968200  0.000228

SCF Convergence by DM+H criterion
max |DM_out - DM_in|         :     0.0000371094
max |H_out - H_in|      (eV) :     0.0002275137
SCF cycle converged after 9 iterations

Using DM_out to compute the final energy and forces
No. of atoms with KB's overlaping orbs in proc 0. Max # of overlaps:       8      64

siesta: E_KS(eV) =             -821.9826

siesta: Atomic forces (eV/Ang):
----------------------------------------
   Tot    0.005124    0.010535   -0.000000
----------------------------------------
   Max    0.262042
   Res    0.076792    sqrt( Sum f_i^2 / 3N )
----------------------------------------
   Max    0.262042    constrained

Stress tensor Voigt[x,y,z,yz,xz,xy] (kbar):       -0.53        0.05        0.49       -0.00        0.00        0.81
(Free)E + p*V (eV/cell)     -822.0425
Target enthalpy (eV/cell)     -822.0407

siesta: Stress tensor (static) (eV/Ang**3):
        -0.000331    0.000505    0.000000
         0.000505    0.000031   -0.000000
         0.000000   -0.000000    0.000307

siesta: Pressure (static):         -0.00407649  kBar

siesta: Stress tensor (total) (eV/Ang**3):
        -0.000331    0.000505    0.000000
         0.000505    0.000031   -0.000000
         0.000000   -0.000000    0.000307

siesta: Pressure (total):         -0.00407649  kBar

                     ====================================
                        Begin FIRE opt. move =      9
                     ====================================

outcell: Unit cell vectors (Ang):
        9.489365   -0.016896    0.000000
       -0.016083    9.016383   -0.000000
        0.000000   -0.000000    8.356351

outcell: Cell vector modules (Ang)   :    9.489380    9.016398    8.356351
outcell: Cell angles (23,13,12) (deg):     90.0000     90.0000     90.2042
outcell: Cell volume (Ang**3)        :    714.9650
<dSpData1D:S at geom step 9
  <sparsity:sparsity for geom step 9
    nrows_g=64 nrows=64 sparsity=1.0000 nnzs=4096, refcount: 7>
  <dData1D:(new from dSpData1D) n=4096, refcount: 1>
refcount: 1>
new_DM -- step:    10
Re-using DM from previous geometries...
Number of DMs in history: 1
 DM extrapolation coefficients: 
1   1.00000
New DM after history re-use:
<dSpData2D:SpM extrapolated using coords
  <sparsity:sparsity for geom step 9
    nrows_g=64 nrows=64 sparsity=1.0000 nnzs=4096, refcount: 9>
  <dData2D:(temp array for extrapolation) n=4096 m=1, refcount: 1>
refcount: 1>
No. of atoms with KB's overlaping orbs in proc 0. Max # of overlaps:       8      64
New grid distribution:   1
           1       1:   45    1:   40    1:   36

InitMesh: MESH =    90 x    80 x    72 =      518400
InitMesh: (bp) =    45 x    40 x    36 =       64800
InitMesh: Mesh cutoff (required, used) =   200.000   205.179 Ry
ExtMesh (bp) on 0 =   105 x    96 x    88 =      887040
PhiOnMesh: Number of (b)points on node 0 =                64800
PhiOnMesh: nlist on node 0 =               488741

        iscf     Eharris(eV)        E_KS(eV)     FreeEng(eV)     dDmax    Ef(eV) dHmax(eV)
   scf:    1     -821.864898     -821.976558     -822.033794  0.086113 -5.931634  0.187194
   scf:    2     -821.201445     -821.746583     -821.783952  0.476402 -5.956679  1.172902
   scf:    3     -822.031651     -821.979547     -822.037623  0.354805 -5.946171  0.114653
   scf:    4     -821.873118     -821.937989     -821.993185  0.134727 -5.943501  0.418006
   scf:    5     -821.951050     -821.980145     -822.037760  0.235669 -5.959874  0.109677
   scf:    6     -821.984105     -821.982652     -822.040621  0.028743 -5.957727  0.048129
   scf:    7     -821.982410     -821.983052     -822.041198  0.028592 -5.958442  0.015798
   scf:    8     -821.983078     -821.983145     -822.041243  0.011110 -5.958920  0.009106
   scf:    9     -821.983126     -821.983148     -822.041268  0.004424 -5.958652  0.000402
   scf:   10     -821.983150     -821.983149     -822.041268  0.000207 -5.958679  0.000224
   scf:   11     -821.983149     -821.983149     -822.041268  0.000036 -5.958796  0.000059

SCF Convergence by DM+H criterion
max |DM_out - DM_in|         :     0.0000359819
max |H_out - H_in|      (eV) :     0.0000592835
SCF cycle converged after 11 iterations

Using DM_out to compute the final energy and forces
No. of atoms with KB's overlaping orbs in proc 0. Max # of overlaps:       8      64

siesta: E_KS(eV) =             -821.9831

siesta: Atomic forces (eV/Ang):
----------------------------------------
   Tot    0.008321    0.011652   -0.000000
----------------------------------------
   Max    0.280392
   Res    0.094601    sqrt( Sum f_i^2 / 3N )
----------------------------------------
   Max    0.280392    constrained

Stress tensor Voigt[x,y,z,yz,xz,xy] (kbar):       -1.33       -0.12        0.70       -0.00        0.00        0.54
(Free)E + p*V (eV/cell)     -821.9304
Target enthalpy (eV/cell)     -822.0413

siesta: Stress tensor (static) (eV/Ang**3):
        -0.000830    0.000339    0.000000
         0.000339   -0.000075   -0.000000
         0.000000   -0.000000    0.000439

siesta: Pressure (static):          0.24853215  kBar

siesta: Stress tensor (total) (eV/Ang**3):
        -0.000830    0.000339    0.000000
         0.000339   -0.000075   -0.000000
         0.000000   -0.000000    0.000439

siesta: Pressure (total):          0.24853215  kBar

                     ====================================
                        Begin FIRE opt. move =     10
                     ====================================

outcell: Unit cell vectors (Ang):
        9.489509   -0.016955    0.000000
       -0.016140    9.016396   -0.000000
        0.000000   -0.000000    8.356284

outcell: Cell vector modules (Ang)   :    9.489524    9.016410    8.356284
outcell: Cell angles (23,13,12) (deg):     90.0000     90.0000     90.2049
outcell: Cell volume (Ang**3)        :    714.9711
<dSpData1D:S at geom step 10
  <sparsity:sparsity for geom step 10
    nrows_g=64 nrows=64 sparsity=1.0000 nnzs=4096, refcount: 7>
  <dData1D:(new from dSpData1D) n=4096, refcount: 1>
refcount: 1>
new_DM -- step:    11
Re-using DM from previous geometries...
Number of DMs in history: 1
 DM extrapolation coefficients: 
1   1.00000
New DM after history re-use:
<dSpData2D:SpM extrapolated using coords
  <sparsity:sparsity for geom step 10
    nrows_g=64 nrows=64 sparsity=1.0000 nnzs=4096, refcount: 9>
  <dData2D:(temp array for extrapolation) n=4096 m=1, refcount: 1>
refcount: 1>
No. of atoms with KB's overlaping orbs in proc 0. Max # of overlaps:       8      64
New grid distribution:   1
           1       1:   45    1:   40    1:   36

InitMesh: MESH =    90 x    80 x    72 =      518400
InitMesh: (bp) =    45 x    40 x    36 =       64800
InitMesh: Mesh cutoff (required, used) =   200.000   205.183 Ry
ExtMesh (bp) on 0 =   105 x    96 x    88 =      887040
PhiOnMesh: Number of (b)points on node 0 =                64800
PhiOnMesh: nlist on node 0 =               488725

        iscf     Eharris(eV)        E_KS(eV)     FreeEng(eV)     dDmax    Ef(eV) dHmax(eV)
   scf:    1     -821.985792     -821.983305     -822.041418  0.001391 -5.960022  0.006236
   scf:    2     -821.982485     -821.983024     -822.041184  0.014160 -5.956959  0.028532
   scf:    3     -821.983361     -821.983302     -822.041420  0.013069 -5.959545  0.002261
   scf:    4     -821.983301     -821.983302     -822.041420  0.000059 -5.959102  0.000350

SCF Convergence by DM+H criterion
max |DM_out - DM_in|         :     0.0000593407
max |H_out - H_in|      (eV) :     0.0003495583
SCF cycle converged after 4 iterations

Using DM_out to compute the final energy and forces
No. of atoms with KB's overlaping orbs in proc 0. Max # of overlaps:       8      64

siesta: E_KS(eV) =             -821.9833

siesta: Atomic forces (eV/Ang):
----------------------------------------
   Tot    0.008196    0.011597    0.000000
----------------------------------------
   Max    0.271944
   Res    0.092043    sqrt( Sum f_i^2 / 3N )
----------------------------------------
   Max    0.271944    constrained

Stress tensor Voigt[x,y,z,yz,xz,xy] (kbar):       -1.30       -0.12        0.69        0.00       -0.00        0.55
(Free)E + p*V (eV/cell)     -821.9332
Target enthalpy (eV/cell)     -822.0414

siesta: Stress tensor (static) (eV/Ang**3):
        -0.000809    0.000344    0.000000
         0.000344   -0.000075    0.000000
        -0.000000    0.000000    0.000429

siesta: Pressure (static):          0.24260395  kBar

siesta: Stress tensor (total) (eV/Ang**3):
        -0.000809    0.000344    0.000000
         0.000344   -0.000075    0.000000
        -0.000000    0.000000    0.000429

siesta: Pressure (total):          0.24260395  kBar

                     ====================================
                        Begin FIRE opt. move =     11
                     ====================================

outcell: Unit cell vectors (Ang):
        9.489689   -0.017029    0.000000
       -0.016210    9.016411   -0.000000
        0.000000   -0.000000    8.356200

outcell: Cell vector modules (Ang)   :    9.489704    9.016426    8.356200
outcell: Cell angles (23,13,12) (deg):     90.0000     90.0000     90.2058
outcell: Cell volume (Ang**3)        :    714.9787
<dSpData1D:S at geom step 11
  <sparsity:sparsity for geom step 11
    nrows_g=64 nrows=64 sparsity=1.0000 nnzs=4096, refcount: 7>
  <dData1D:(new from dSpData1D) n=4096, refcount: 1>
refcount: 1>
new_DM -- step:    12
Re-using DM from previous geometries...
Number of DMs in history: 1
 DM extrapolation coefficients: 
1   1.00000
New DM after history re-use:
<dSpData2D:SpM extrapolated using coords
  <sparsity:sparsity for geom step 11
    nrows_g=64 nrows=64 sparsity=1.0000 nnzs=4096, refcount: 9>
  <dData2D:(temp array for extrapolation) n=4096 m=1, refcount: 1>
refcount: 1>
No. of atoms with KB's overlaping orbs in proc 0. Max # of overlaps:       8      64
New grid distribution:   1
           1       1:   45    1:   40    1:   36

InitMesh: MESH =    90 x    80 x    72 =      518400
InitMesh: (bp) =    45 x    40 x    36 =       64800
InitMesh: Mesh cutoff (required, used) =   200.000   205.187 Ry
ExtMesh (bp) on 0 =   105 x    96 x    88 =      887040
PhiOnMesh: Number of (b)points on node 0 =                64800
PhiOnMesh: nlist on node 0 =               488750

        iscf     Eharris(eV)        E_KS(eV)     FreeEng(eV)     dDmax    Ef(eV) dHmax(eV)
   scf:    1     -821.986556     -821.983488     -822.041599  0.001681 -5.960605  0.008312
   scf:    2     -821.982285     -821.983081     -822.041246  0.017392 -5.956523  0.036930
   scf:    3     -821.983557     -821.983485     -822.041602  0.016066 -5.959963  0.003005
   scf:    4     -821.983485     -821.983485     -822.041603  0.000089 -5.959419  0.000418

SCF Convergence by DM+H criterion
max |DM_out - DM_in|         :     0.0000894599
max |H_out - H_in|      (eV) :     0.0004181420
SCF cycle converged after 4 iterations

Using DM_out to compute the final energy and forces
No. of atoms with KB's overlaping orbs in proc 0. Max # of overlaps:       8      64

siesta: E_KS(eV) =             -821.9835

siesta: Atomic forces (eV/Ang):
----------------------------------------
   Tot    0.008837    0.011543    0.000000
----------------------------------------
   Max    0.260958
   Res    0.088920    sqrt( Sum f_i^2 / 3N )
----------------------------------------
   Max    0.260958    constrained

Stress tensor Voigt[x,y,z,yz,xz,xy] (kbar):       -1.26       -0.12        0.67        0.00        0.00        0.56
(Free)E + p*V (eV/cell)     -821.9364
Target enthalpy (eV/cell)     -822.0416

siesta: Stress tensor (static) (eV/Ang**3):
        -0.000784    0.000350    0.000000
         0.000350   -0.000075    0.000000
         0.000000    0.000000    0.000417

siesta: Pressure (static):          0.23569929  kBar

siesta: Stress tensor (total) (eV/Ang**3):
        -0.000784    0.000350    0.000000
         0.000350   -0.000075    0.000000
         0.000000    0.000000    0.000417

siesta: Pressure (total):          0.23569929  kBar

                     ====================================
                        Begin FIRE opt. move =     12
                     ====================================

outcell: Unit cell vectors (Ang):
        9.489937   -0.017134    0.000000
       -0.016310    9.016433   -0.000000
        0.000000   -0.000000    8.356083

outcell: Cell vector modules (Ang)   :    9.489953    9.016448    8.356083
outcell: Cell angles (23,13,12) (deg):     90.0000     90.0000     90.2071
outcell: Cell volume (Ang**3)        :    714.9891
<dSpData1D:S at geom step 12
  <sparsity:sparsity for geom step 12
    nrows_g=64 nrows=64 sparsity=1.0000 nnzs=4096, refcount: 7>
  <dData1D:(new from dSpData1D) n=4096, refcount: 1>
refcount: 1>
new_DM -- step:    13
Re-using DM from previous geometries...
Number of DMs in history: 1
 DM extrapolation coefficients: 
1   1.00000
New DM after history re-use:
<dSpData2D:SpM extrapolated using coords
  <sparsity:sparsity for geom step 12
    nrows_g=64 nrows=64 sparsity=1.0000 nnzs=4096, refcount: 9>
  <dData2D:(temp array for extrapolation) n=4096 m=1, refcount: 1>
refcount: 1>
No. of atoms with KB's overlaping orbs in proc 0. Max # of overlaps:       8      64
New grid distribution:   1
           1       1:   45    1:   40    1:   36

InitMesh: MESH =    90 x    80 x    72 =      518400
InitMesh: (bp) =    45 x    40 x    36 =       64800
InitMesh: Mesh cutoff (required, used) =   200.000   205.192 Ry
ExtMesh (bp) on 0 =   105 x    96 x    88 =      887040
PhiOnMesh: Number of (b)points on node 0 =                64800
PhiOnMesh: nlist on node 0 =               488765

        iscf     Eharris(eV)        E_KS(eV)     FreeEng(eV)     dDmax    Ef(eV) dHmax(eV)
   scf:    1     -821.987914     -821.983732     -822.041839  0.002420 -5.961432  0.011273
   scf:    2     -821.981311     -821.982930     -822.041097  0.025233 -5.955949  0.051567
   scf:    3     -821.983835     -821.983730     -822.041846  0.023290 -5.960585  0.004053
   scf:    4     -821.983729     -821.983730     -822.041846  0.000108 -5.959840  0.000574
   scf:    5     -821.983730     -821.983730     -822.041846  0.000032 -5.959781  0.000109

SCF Convergence by DM+H criterion
max |DM_out - DM_in|         :     0.0000319895
max |H_out - H_in|      (eV) :     0.0001087407
SCF cycle converged after 5 iterations

Using DM_out to compute the final energy and forces
No. of atoms with KB's overlaping orbs in proc 0. Max # of overlaps:       8      64

siesta: E_KS(eV) =             -821.9837

siesta: Atomic forces (eV/Ang):
----------------------------------------
   Tot    0.009057    0.011261   -0.000000
----------------------------------------
   Max    0.245543
   Res    0.084689    sqrt( Sum f_i^2 / 3N )
----------------------------------------
   Max    0.245543    constrained

Stress tensor Voigt[x,y,z,yz,xz,xy] (kbar):       -1.20       -0.12        0.64       -0.00        0.00        0.57
(Free)E + p*V (eV/cell)     -821.9417
Target enthalpy (eV/cell)     -822.0418

siesta: Stress tensor (static) (eV/Ang**3):
        -0.000747    0.000358    0.000000
         0.000358   -0.000074   -0.000000
         0.000000   -0.000000    0.000400

siesta: Pressure (static):          0.22435323  kBar

siesta: Stress tensor (total) (eV/Ang**3):
        -0.000747    0.000358    0.000000
         0.000358   -0.000074   -0.000000
         0.000000   -0.000000    0.000400

siesta: Pressure (total):          0.22435323  kBar

                     ====================================
                        Begin FIRE opt. move =     13
                     ====================================

outcell: Unit cell vectors (Ang):
        9.490253   -0.017271   -0.000000
       -0.016441    9.016461   -0.000000
       -0.000000   -0.000000    8.355935

outcell: Cell vector modules (Ang)   :    9.490269    9.016476    8.355935
outcell: Cell angles (23,13,12) (deg):     90.0000     90.0000     90.2087
outcell: Cell volume (Ang**3)        :    715.0024
<dSpData1D:S at geom step 13
  <sparsity:sparsity for geom step 13
    nrows_g=64 nrows=64 sparsity=1.0000 nnzs=4096, refcount: 7>
[...]
PhiOnMesh: nlist on node 0 =               488021

        iscf     Eharris(eV)        E_KS(eV)     FreeEng(eV)     dDmax    Ef(eV) dHmax(eV)
   scf:    1     -821.993185     -821.995674     -822.053188  0.009214 -5.946727  0.015663
   scf:    2     -821.968447     -821.987860     -822.042707  0.095706 -5.947376  0.180777
   scf:    3     -821.994431     -821.995928     -822.053283  0.086859 -5.946768  0.002049
   scf:    4     -821.995867     -821.995899     -822.053282  0.001483 -5.946612  0.002060
   scf:    5     -821.995967     -821.995935     -822.053283  0.001926 -5.946610  0.001867
   scf:    6     -821.995907     -821.995922     -822.053284  0.000793 -5.946642  0.000107
   scf:    7     -821.995924     -821.995923     -822.053284  0.000063 -5.946644  0.000238

SCF Convergence by DM+H criterion
max |DM_out - DM_in|         :     0.0000630420
max |H_out - H_in|      (eV) :     0.0002379370
SCF cycle converged after 7 iterations

Using DM_out to compute the final energy and forces
No. of atoms with KB's overlaping orbs in proc 0. Max # of overlaps:       8      64

siesta: E_KS(eV) =             -821.9959

siesta: Atomic forces (eV/Ang):
----------------------------------------
   Tot   -0.018204   -0.029994   -0.000000
----------------------------------------
   Max    0.062978
   Res    0.025645    sqrt( Sum f_i^2 / 3N )
----------------------------------------
   Max    0.062978    constrained

Stress tensor Voigt[x,y,z,yz,xz,xy] (kbar):        0.00        0.01        0.05        0.00       -0.00       -0.16
(Free)E + p*V (eV/cell)     -822.0641
Target enthalpy (eV/cell)     -822.0533

siesta: Stress tensor (static) (eV/Ang**3):
         0.000003   -0.000100    0.000000
        -0.000100    0.000009    0.000000
        -0.000000    0.000000    0.000033

siesta: Pressure (static):         -0.02414804  kBar

siesta: Stress tensor (total) (eV/Ang**3):
         0.000003   -0.000100    0.000000
        -0.000100    0.000009    0.000000
        -0.000000    0.000000    0.000033

siesta: Pressure (total):         -0.02414804  kBar

                     ====================================
                        Begin FIRE opt. move =     40
                     ====================================

outcell: Unit cell vectors (Ang):
        9.508818   -0.042539    0.000000
       -0.040494    9.025565    0.000000
        0.000000    0.000000    8.345550

outcell: Cell vector modules (Ang)   :    9.508914    9.025655    8.345550
outcell: Cell angles (23,13,12) (deg):     90.0000     90.0000     90.5134
outcell: Cell volume (Ang**3)        :    716.2212
<dSpData1D:S at geom step 40
  <sparsity:sparsity for geom step 40
    nrows_g=64 nrows=64 sparsity=1.0000 nnzs=4096, refcount: 7>
  <dData1D:(new from dSpData1D) n=4096, refcount: 1>
refcount: 1>
new_DM -- step:    41
Re-using DM from previous geometries...
Number of DMs in history: 1
 DM extrapolation coefficients: 
1   1.00000
New DM after history re-use:
<dSpData2D:SpM extrapolated using coords
  <sparsity:sparsity for geom step 40
    nrows_g=64 nrows=64 sparsity=1.0000 nnzs=4096, refcount: 9>
  <dData2D:(temp array for extrapolation) n=4096 m=1, refcount: 1>
refcount: 1>
No. of atoms with KB's overlaping orbs in proc 0. Max # of overlaps:       8      64
New grid distribution:   1
           1       1:   45    1:   40    1:   36

InitMesh: MESH =    90 x    80 x    72 =      518400
InitMesh: (bp) =    45 x    40 x    36 =       64800
InitMesh: Mesh cutoff (required, used) =   200.000   205.711 Ry
ExtMesh (bp) on 0 =   105 x    96 x    88 =      887040
PhiOnMesh: Number of (b)points on node 0 =                64800
PhiOnMesh: nlist on node 0 =               488064

        iscf     Eharris(eV)        E_KS(eV)     FreeEng(eV)     dDmax    Ef(eV) dHmax(eV)
   scf:    1     -821.996625     -821.995592     -822.053184  0.013335 -5.948412  0.024068
   scf:    2     -821.941767     -821.979763     -822.033231  0.132218 -5.945791  0.254599
   scf:    3     -821.994137     -821.996005     -822.053376  0.119416 -5.947966  0.004963
   scf:    4     -821.995868     -821.995943     -822.053371  0.003115 -5.947305  0.004013
   scf:    5     -821.996058     -821.996007     -822.053376  0.003202 -5.947218  0.002437
   scf:    6     -821.995991     -821.995999     -822.053377  0.000467 -5.947203  0.001031
   scf:    7     -821.995998     -821.995998     -822.053377  0.000046 -5.947209  0.000935

SCF Convergence by DM+H criterion
max |DM_out - DM_in|         :     0.0000455420
max |H_out - H_in|      (eV) :     0.0009354096
SCF cycle converged after 7 iterations

Using DM_out to compute the final energy and forces
No. of atoms with KB's overlaping orbs in proc 0. Max # of overlaps:       8      64

siesta: E_KS(eV) =             -821.9960

siesta: Atomic forces (eV/Ang):
----------------------------------------
   Tot   -0.015164   -0.029920   -0.000000
----------------------------------------
   Max    0.059146
   Res    0.022120    sqrt( Sum f_i^2 / 3N )
----------------------------------------
   Max    0.059146    constrained

Stress tensor Voigt[x,y,z,yz,xz,xy] (kbar):       -0.02        0.02        0.05        0.00        0.00       -0.13
(Free)E + p*V (eV/cell)     -822.0612
Target enthalpy (eV/cell)     -822.0534

siesta: Stress tensor (static) (eV/Ang**3):
        -0.000011   -0.000083    0.000000
        -0.000084    0.000015    0.000000
         0.000000    0.000000    0.000029

siesta: Pressure (static):         -0.01760596  kBar

siesta: Stress tensor (total) (eV/Ang**3):
        -0.000011   -0.000083    0.000000
        -0.000084    0.000015    0.000000
         0.000000    0.000000    0.000029

siesta: Pressure (total):         -0.01760596  kBar

                     ====================================
                        Begin FIRE opt. move =     41
                     ====================================

outcell: Unit cell vectors (Ang):
        9.508126   -0.042092    0.000000
       -0.040069    9.025523    0.000000
        0.000000    0.000000    8.345586

outcell: Cell vector modules (Ang)   :    9.508219    9.025612    8.345586
outcell: Cell angles (23,13,12) (deg):     90.0000     90.0000     90.5080
outcell: Cell volume (Ang**3)        :    716.1692
<dSpData1D:S at geom step 41
  <sparsity:sparsity for geom step 41
    nrows_g=64 nrows=64 sparsity=1.0000 nnzs=4096, refcount: 7>
  <dData1D:(new from dSpData1D) n=4096, refcount: 1>
refcount: 1>
new_DM -- step:    42
Re-using DM from previous geometries...
Number of DMs in history: 1
 DM extrapolation coefficients: 
1   1.00000
New DM after history re-use:
<dSpData2D:SpM extrapolated using coords
  <sparsity:sparsity for geom step 41
    nrows_g=64 nrows=64 sparsity=1.0000 nnzs=4096, refcount: 9>
  <dData2D:(temp array for extrapolation) n=4096 m=1, refcount: 1>
refcount: 1>
No. of atoms with KB's overlaping orbs in proc 0. Max # of overlaps:       8      64
New grid distribution:   1
           1       1:   45    1:   40    1:   36

InitMesh: MESH =    90 x    80 x    72 =      518400
InitMesh: (bp) =    45 x    40 x    36 =       64800
InitMesh: Mesh cutoff (required, used) =   200.000   205.709 Ry
ExtMesh (bp) on 0 =   105 x    96 x    88 =      887040
PhiOnMesh: Number of (b)points on node 0 =                64800
PhiOnMesh: nlist on node 0 =               488050

        iscf     Eharris(eV)        E_KS(eV)     FreeEng(eV)     dDmax    Ef(eV) dHmax(eV)
   scf:    1     -821.999848     -821.995308     -822.053022  0.020799 -5.950710  0.038789
   scf:    2     -821.878129     -821.960334     -822.010908  0.192828 -5.943792  0.376971
   scf:    3     -821.994240     -821.996106     -822.053478  0.171904 -5.949720  0.010783
   scf:    4     -821.995545     -821.995884     -822.053421  0.009485 -5.948469  0.013742
   scf:    5     -821.996208     -821.996083     -822.053487  0.007668 -5.948303  0.002052
   scf:    6     -821.996082     -821.996083     -822.053487  0.000033 -5.948261  0.001471
   scf:    7     -821.996082     -821.996082     -822.053487  0.000034 -5.948264  0.001390
   scf:    8     -821.996059     -821.996071     -822.053488  0.000652 -5.948286  0.000030
   scf:    9     -821.996071     -821.996071     -822.053488  0.000002 -5.948283  0.000023

SCF Convergence by DM+H criterion
max |DM_out - DM_in|         :     0.0000020760
max |H_out - H_in|      (eV) :     0.0000230902
SCF cycle converged after 9 iterations

Using DM_out to compute the final energy and forces
No. of atoms with KB's overlaping orbs in proc 0. Max # of overlaps:       8      64

siesta: E_KS(eV) =             -821.9961

siesta: Atomic forces (eV/Ang):
----------------------------------------
   Tot   -0.018649   -0.029886   -0.000000
----------------------------------------
   Max    0.044145
   Res    0.015684    sqrt( Sum f_i^2 / 3N )
----------------------------------------
   Max    0.044145    constrained

Stress tensor Voigt[x,y,z,yz,xz,xy] (kbar):        0.03        0.04        0.03        0.00       -0.00       -0.10
(Free)E + p*V (eV/cell)     -822.0667
Target enthalpy (eV/cell)     -822.0535

siesta: Stress tensor (static) (eV/Ang**3):
         0.000016   -0.000064    0.000000
        -0.000064    0.000024    0.000000
        -0.000000    0.000000    0.000016

siesta: Pressure (static):         -0.02965523  kBar

siesta: Stress tensor (total) (eV/Ang**3):
         0.000016   -0.000064    0.000000
        -0.000064    0.000024    0.000000
        -0.000000    0.000000    0.000016

siesta: Pressure (total):         -0.02965523  kBar

                     ====================================
                        Begin FIRE opt. move =     42
                     ====================================

outcell: Unit cell vectors (Ang):
        9.507427   -0.041566    0.000000
       -0.039567    9.025457    0.000000
        0.000000    0.000000    8.345601

outcell: Cell vector modules (Ang)   :    9.507518    9.025544    8.345601
outcell: Cell angles (23,13,12) (deg):     90.0000     90.0000     90.5017
outcell: Cell volume (Ang**3)        :    716.1130
<dSpData1D:S at geom step 42
  <sparsity:sparsity for geom step 42
    nrows_g=64 nrows=64 sparsity=1.0000 nnzs=4096, refcount: 7>
  <dData1D:(new from dSpData1D) n=4096, refcount: 1>
refcount: 1>
new_DM -- step:    43
Re-using DM from previous geometries...
Number of DMs in history: 1
 DM extrapolation coefficients: 
1   1.00000
New DM after history re-use:
<dSpData2D:SpM extrapolated using coords
  <sparsity:sparsity for geom step 42
    nrows_g=64 nrows=64 sparsity=1.0000 nnzs=4096, refcount: 9>
  <dData2D:(temp array for extrapolation) n=4096 m=1, refcount: 1>
refcount: 1>
No. of atoms with KB's overlaping orbs in proc 0. Max # of overlaps:       8      64
New grid distribution:   1
           1       1:   45    1:   40    1:   36

InitMesh: MESH =    90 x    80 x    72 =      518400
InitMesh: (bp) =    45 x    40 x    36 =       64800
InitMesh: Mesh cutoff (required, used) =   200.000   205.708 Ry
ExtMesh (bp) on 0 =   105 x    96 x    88 =      887040
PhiOnMesh: Number of (b)points on node 0 =                64800
PhiOnMesh: nlist on node 0 =               488085

        iscf     Eharris(eV)        E_KS(eV)     FreeEng(eV)     dDmax    Ef(eV) dHmax(eV)
   scf:    1     -822.004521     -821.995500     -822.053210  0.018760 -5.953579  0.035362
   scf:    2     -821.900738     -821.967249     -822.018961  0.173912 -5.942913  0.342142
   scf:    3     -821.994191     -821.996145     -822.053567  0.156007 -5.951895  0.012176
   scf:    4     -821.995782     -821.995995     -822.053537  0.006948 -5.949974  0.009941
   scf:    5     -821.996245     -821.996166     -822.053559  0.008580 -5.949790  0.007649
   scf:    6     -821.996098     -821.996136     -822.053573  0.002465 -5.949787  0.001906
   scf:    7     -821.996139     -821.996137     -822.053573  0.000087 -5.949790  0.002055
   scf:    8     -821.996104     -821.996121     -822.053574  0.000963 -5.949816  0.000044
   scf:    9     -821.996121     -821.996121     -822.053574  0.000002 -5.949812  0.000034

SCF Convergence by DM+H criterion
max |DM_out - DM_in|         :     0.0000018025
max |H_out - H_in|      (eV) :     0.0000337580
SCF cycle converged after 9 iterations

Using DM_out to compute the final energy and forces
No. of atoms with KB's overlaping orbs in proc 0. Max # of overlaps:       8      64

siesta: E_KS(eV) =             -821.9961

siesta: Atomic forces (eV/Ang):
----------------------------------------
   Tot   -0.016421   -0.028466   -0.000000
----------------------------------------
   Max    0.022390
   Res    0.009456    sqrt( Sum f_i^2 / 3N )
----------------------------------------
   Max    0.022390    constrained

Stress tensor Voigt[x,y,z,yz,xz,xy] (kbar):        0.10        0.06       -0.01        0.00        0.00       -0.05
(Free)E + p*V (eV/cell)     -822.0761
Target enthalpy (eV/cell)     -822.0536

siesta: Stress tensor (static) (eV/Ang**3):
         0.000062   -0.000030    0.000000
        -0.000030    0.000037    0.000000
         0.000000    0.000000   -0.000004

siesta: Pressure (static):         -0.05050209  kBar

siesta: Stress tensor (total) (eV/Ang**3):
         0.000062   -0.000030    0.000000
        -0.000030    0.000037    0.000000
         0.000000    0.000000   -0.000004

siesta: Pressure (total):         -0.05050209  kBar

outcoor: Relaxed atomic coordinates (Ang):                  
    1.03017185   -0.58509572   -0.00000000   1       1  C-gga
   -0.03551060    0.53572644    0.00000000   1       2  C-gga
   -1.30769154    0.07910835   -0.00000001   2       3  O-gga
    0.13295556    1.22240656    0.89280860   3       4  H-gga
    0.13295555    1.22240655   -0.89280859   3       5  H-gga
    2.05800319   -0.15593286    0.00000000   3       6  H-gga
    0.90105562   -1.22233888    0.90245154   3       7  H-gga
    0.90105562   -1.22233889   -0.90245155   3       8  H-gga

outcell: Unit cell vectors (Ang):
        9.507427   -0.041566    0.000000
       -0.039567    9.025457    0.000000
        0.000000    0.000000    8.345601

outcell: Cell vector modules (Ang)   :    9.507518    9.025544    8.345601
outcell: Cell angles (23,13,12) (deg):     90.0000     90.0000     90.5017
outcell: Cell volume (Ang**3)        :    716.1130

siesta: Program's energy decomposition (eV):
siesta: Ebs     =      -236.025140
siesta: Eions   =      1255.901789
siesta: Ena     =       224.989853
siesta: Ekin    =       587.527365
siesta: Enl     =      -128.187377
siesta: Eso     =         0.000000
siesta: Edftu   =         0.000000
siesta: DEna    =       -17.168879
siesta: DUscf   =         2.222930
siesta: DUext   =         0.000000
siesta: Exc     =      -235.478224
siesta: eta*DQ  =         0.000000
siesta: Emadel  =         0.000000
siesta: Emeta   =         0.000000
siesta: Emolmec =         0.000000
siesta: Ekinion =         0.000000
siesta: Eharris =      -821.996121
siesta: Etot    =      -821.996121
siesta: FreeEng =      -822.053574

siesta: Final energy (eV):
siesta:  Band Struct. =    -236.025140
siesta:       Kinetic =     587.527365
siesta:       Hartree =    1041.282488
siesta:       Edftu   =       0.000000
siesta:       Eso     =       0.000000
siesta:    Ext. field =       0.000000
siesta:   Exch.-corr. =    -235.478224
siesta:  Ion-electron =   -2600.622257
siesta:       Ion-ion =     385.294507
siesta:       Ekinion =       0.000000
siesta:         Total =    -821.996121
siesta:         Fermi =      -5.949812

siesta: Stress tensor (static) (eV/Ang**3):
siesta:     0.000062   -0.000030    0.000000
siesta:    -0.000030    0.000037    0.000000
siesta:     0.000000    0.000000   -0.000004

siesta: Constrained stress tensor (static) (eV/Ang**3):
siesta:     0.000062   -0.000030    0.000000
siesta:    -0.000030    0.000037    0.000000
siesta:     0.000000    0.000000   -0.000004

siesta: Cell volume =        716.112958 Ang**3

siesta: Pressure (static):
siesta:                Solid            Molecule  Units
siesta:          -0.00000034         -0.00000030  Ry/Bohr**3
siesta:          -0.00003152         -0.00002721  eV/Ang**3
siesta:          -0.05050209         -0.04360225  kBar
(Free)E+ p_basis*V_orbitals  =        -819.478749
(Free)Eharris+ p_basis*V_orbitals  =        -819.478749

siesta: Electric dipole (a.u.)  =    0.780435    0.203107    0.000000
siesta: Electric dipole (Debye) =    1.983669    0.516248    0.000000

cite: Please see "CH3CH2O.bib" for an exhaustive BiBTeX file.
cite: Please clearly indicate Siesta version in published work: 4.1.5
cite: This calculation has made use of the following articles
cite: which are encouraged to be cited in a published work.
        Primary SIESTA paper
          DOI: www.doi.org/10.1088/0953-8984/14/11/302


timer: Elapsed wall time (sec) =     239.927
timer: CPU execution times (sec):

Routine            Calls   Time/call    Tot.time        %
siesta                 1     237.094     237.094   100.00
Setup                  1       0.391       0.391     0.16
bands                  1       0.000       0.000     0.00
KSV_init               1       0.000       0.000     0.00
IterGeom              43       5.496     236.328    99.68
state_init            43       0.036       1.547     0.65
hsparse               43       0.001       0.047     0.02
overlap               43       0.033       1.406     0.59
Setup_H0              43       0.798      34.297    14.47
naefs                 86       0.000       0.000     0.00
MolMec                86       0.000       0.000     0.00
kinefsm               86       0.018       1.547     0.65
nlefsm                86       0.079       6.828     2.88
DHSCF_Init            43       0.615      26.438    11.15
DHSCF1                43       0.023       1.000     0.42
INITMESH              43       0.000       0.000     0.00
DHSCF2                43       0.592      25.438    10.73
REMESH                43       0.061       2.625     1.11
REORD               1245       0.001       1.406     0.59
PHION                 43       0.368      15.812     6.67
COMM_BSC            1932       0.001       1.984     0.84
POISON               494       0.115      57.047    24.06
fft                  988       0.053      52.375    22.09
IterSCF              364       0.453     164.859    69.53
setup_H              407       0.404     164.250    69.28
DHSCF                451       0.442     199.516    84.15
DHSCF3               451       0.403     181.641    76.61
rhoofd               451       0.049      22.281     9.40
XC                   451       0.191      85.938    36.25
GXC-CellXC           451       0.182      81.922    34.55
cellXC               451       0.182      81.906    34.55
vmat                 450       0.033      14.812     6.25
compute_dm           364       0.001       0.375     0.16
diagon               364       0.001       0.375     0.16
r-eigvec             364       0.001       0.297     0.13
r-buildHS            364       0.000       0.000     0.00
rdiag                364       0.001       0.297     0.13
rdiag1               364       0.000       0.016     0.01
rdiag2               364       0.000       0.047     0.02
rdiag3               364       0.001       0.219     0.09
rdiag4               364       0.000       0.000     0.00
r-buildD             364       0.000       0.062     0.03
MIXER                321       0.000       0.031     0.01
PostSCF               43       0.826      35.500    14.97
DHSCF4                43       0.416      17.875     7.54
dfscf                 43       0.369      15.875     6.70
overfsm               43       0.001       0.047     0.02
state_analysis        43       0.001       0.047     0.02
siesta_move           43       0.002       0.078     0.03
Analysis               1       0.375       0.375     0.16
siesta_analysis        1       0.375       0.375     0.16
optical                1       0.000       0.000     0.00
  
>> End of run:   2-NOV-2022  23:46:15
Job completed
