SystemName     Graphene                                                                        
SystemLabel     Graphene                                                                        
MPI.Nprocs.SIESTA         3     # default value
